/*--------------------------------*- C++ -*----------------------------------*\
| =========                 |                                                 |
| \\      /  F ield         | foam-extend: Open Source CFD                    |
|  \\    /   O peration     | Version:     4.1                                |
|   \\  /    A nd           | Web:         http://www.foam-extend.org         |
|    \\/     M anipulation  |                                                 |
\*---------------------------------------------------------------------------*/
FoamFile
{
    version     2.0;
    format      ascii;
    class       vectorField;
    location    "3";
    object      solidsCellD_iteration15;
}
// * * * * * * * * * * * * * * * * * * * * * * * * * * * * * * * * * * * * * //


1000
(
(1.52303e-06 -6.22617e-07 0)
(1.43893e-06 -5.80427e-07 0)
(1.38562e-06 -5.5411e-07 0)
(1.35535e-06 -5.42477e-07 0)
(1.34107e-06 -5.3932e-07 0)
(1.33846e-06 -5.42666e-07 0)
(1.34448e-06 -5.50293e-07 0)
(1.35686e-06 -5.6114e-07 0)
(1.37431e-06 -5.74122e-07 0)
(1.39507e-06 -5.88511e-07 0)
(1.37731e-06 -6.80248e-07 0)
(1.28784e-06 -6.51429e-07 0)
(1.23108e-06 -6.33588e-07 0)
(1.19824e-06 -6.27716e-07 0)
(1.18187e-06 -6.28401e-07 0)
(1.17736e-06 -6.34456e-07 0)
(1.18154e-06 -6.43987e-07 0)
(1.19204e-06 -6.56276e-07 0)
(1.20744e-06 -6.70347e-07 0)
(1.22588e-06 -6.85645e-07 0)
(1.22588e-06 -7.34863e-07 0)
(1.13449e-06 -7.20985e-07 0)
(1.07647e-06 -7.12625e-07 0)
(1.04248e-06 -7.13091e-07 0)
(1.025e-06 -7.17941e-07 0)
(1.0192e-06 -7.26854e-07 0)
(1.02192e-06 -7.38364e-07 0)
(1.03083e-06 -7.5205e-07 0)
(1.04441e-06 -7.67187e-07 0)
(1.06099e-06 -7.83181e-07 0)
(1.06977e-06 -7.85483e-07 0)
(9.80384e-07 -7.87233e-07 0)
(9.23557e-07 -7.88816e-07 0)
(8.89937e-07 -7.95886e-07 0)
(8.72283e-07 -8.05037e-07 0)
(8.65795e-07 -8.16862e-07 0)
(8.67354e-07 -8.3034e-07 0)
(8.74806e-07 -8.45399e-07 0)
(8.8664e-07 -8.61554e-07 0)
(9.01326e-07 -8.78322e-07 0)
(9.10223e-07 -8.31092e-07 0)
(8.26517e-07 -8.48333e-07 0)
(7.73295e-07 -8.59747e-07 0)
(7.41653e-07 -8.73323e-07 0)
(7.24778e-07 -8.86693e-07 0)
(7.18112e-07 -9.01385e-07 0)
(7.18833e-07 -9.16794e-07 0)
(7.24957e-07 -9.33195e-07 0)
(7.35096e-07 -9.50351e-07 0)
(7.47767e-07 -9.67911e-07 0)
(7.47804e-07 -8.70812e-07 0)
(6.73574e-07 -9.02537e-07 0)
(6.2638e-07 -9.23157e-07 0)
(5.98132e-07 -9.4282e-07 0)
(5.82878e-07 -9.6013e-07 0)
(5.76564e-07 -9.77476e-07 0)
(5.76775e-07 -9.94663e-07 0)
(5.81682e-07 -1.0123e-06 0)
(5.90074e-07 -1.03039e-06 0)
(6.0059e-07 -1.04875e-06 0)
(5.83485e-07 -9.03707e-07 0)
(5.21934e-07 -9.48113e-07 0)
(4.82798e-07 -9.76817e-07 0)
(4.59273e-07 -1.00183e-06 0)
(4.46485e-07 -1.02259e-06 0)
(4.41051e-07 -1.04225e-06 0)
(4.4098e-07 -1.06098e-06 0)
(4.44718e-07 -1.07971e-06 0)
(4.5129e-07 -1.09862e-06 0)
(4.59546e-07 -1.1177e-06 0)
(4.17743e-07 -9.2909e-07 0)
(3.71615e-07 -9.83692e-07 0)
(3.4231e-07 -1.01886e-06 0)
(3.24675e-07 -1.04814e-06 0)
(3.15056e-07 -1.07167e-06 0)
(3.10887e-07 -1.0932e-06 0)
(3.1068e-07 -1.11321e-06 0)
(3.13279e-07 -1.13282e-06 0)
(3.1799e-07 -1.1524e-06 0)
(3.23923e-07 -1.17209e-06 0)
(2.51039e-07 -9.4635e-07 0)
(2.22481e-07 -1.00806e-06 0)
(2.04379e-07 -1.04774e-06 0)
(1.93434e-07 -1.08003e-06 0)
(1.87411e-07 -1.1055e-06 0)
(1.84758e-07 -1.12832e-06 0)
(1.84592e-07 -1.14923e-06 0)
(1.86159e-07 -1.1695e-06 0)
(1.8899e-07 -1.18956e-06 0)
(1.92554e-07 -1.20969e-06 0)
(8.38432e-08 -9.55049e-07 0)
(7.41844e-08 -1.02045e-06 0)
(6.79941e-08 -1.06244e-06 0)
(6.42631e-08 -1.09627e-06 0)
(6.2253e-08 -1.12273e-06 0)
(6.13444e-08 -1.14625e-06 0)
(6.12306e-08 -1.16758e-06 0)
(6.17356e-08 -1.18817e-06 0)
(6.26954e-08 -1.20848e-06 0)
(6.38831e-08 -1.22886e-06 0)
(2.37337e-06 -2.83437e-08 0)
(2.39412e-06 -2.04125e-08 0)
(2.4071e-06 -1.54109e-08 0)
(2.42131e-06 -1.24977e-08 0)
(2.43711e-06 -1.09035e-08 0)
(2.45644e-06 -1.02135e-08 0)
(2.47938e-06 -1.01597e-08 0)
(2.50606e-06 -1.04723e-08 0)
(2.53649e-06 -1.10805e-08 0)
(2.57021e-06 -1.18358e-08 0)
(2.35585e-06 -8.50799e-08 0)
(2.37314e-06 -6.17494e-08 0)
(2.38396e-06 -4.70082e-08 0)
(2.39669e-06 -3.8492e-08 0)
(2.4115e-06 -3.39377e-08 0)
(2.43011e-06 -3.19361e-08 0)
(2.45256e-06 -3.17516e-08 0)
(2.47884e-06 -3.27814e-08 0)
(2.50889e-06 -3.46657e-08 0)
(2.54226e-06 -3.68815e-08 0)
(2.32093e-06 -1.42264e-07 0)
(2.33157e-06 -1.04855e-07 0)
(2.33819e-06 -8.12537e-08 0)
(2.34814e-06 -6.75479e-08 0)
(2.3611e-06 -6.02417e-08 0)
(2.37843e-06 -5.71818e-08 0)
(2.39988e-06 -5.70226e-08 0)
(2.42541e-06 -5.87617e-08 0)
(2.45476e-06 -6.18832e-08 0)
(2.48742e-06 -6.55845e-08 0)
(2.26919e-06 -2.00215e-07 0)
(2.27036e-06 -1.50719e-07 0)
(2.27097e-06 -1.19583e-07 0)
(2.27696e-06 -1.01596e-07 0)
(2.28727e-06 -9.20332e-08 0)
(2.30278e-06 -8.81155e-08 0)
(2.32285e-06 -8.80657e-08 0)
(2.34731e-06 -9.05691e-08 0)
(2.37567e-06 -9.48947e-08 0)
(2.40737e-06 -1.00059e-07 0)
(2.20139e-06 -2.59068e-07 0)
(2.1909e-06 -2.00181e-07 0)
(2.18407e-06 -1.63192e-07 0)
(2.18514e-06 -1.42002e-07 0)
(2.19219e-06 -1.30858e-07 0)
(2.2054e-06 -1.26482e-07 0)
(2.22375e-06 -1.26725e-07 0)
(2.24685e-06 -1.30062e-07 0)
(2.27401e-06 -1.35567e-07 0)
(2.30457e-06 -1.42145e-07 0)
(2.1185e-06 -3.18901e-07 0)
(2.0948e-06 -2.53864e-07 0)
(2.07962e-06 -2.13027e-07 0)
(2.07515e-06 -1.89898e-07 0)
(2.07849e-06 -1.77947e-07 0)
(2.08907e-06 -1.73561e-07 0)
(2.1055e-06 -1.74316e-07 0)
(2.12703e-06 -1.7856e-07 0)
(2.15283e-06 -1.85234e-07 0)
(2.18208e-06 -1.93172e-07 0)
(2.02178e-06 -3.79569e-07 0)
(1.9841e-06 -3.11996e-07 0)
(1.96007e-06 -2.69558e-07 0)
(1.94973e-06 -2.45876e-07 0)
(1.94915e-06 -2.33944e-07 0)
(1.95695e-06 -2.30052e-07 0)
(1.97133e-06 -2.31579e-07 0)
(1.99119e-06 -2.36792e-07 0)
(2.01551e-06 -2.44597e-07 0)
(2.04338e-06 -2.53794e-07 0)
(1.91245e-06 -4.40761e-07 0)
(1.86093e-06 -3.74402e-07 0)
(1.82816e-06 -3.32722e-07 0)
(1.81199e-06 -3.09982e-07 0)
(1.80754e-06 -2.98964e-07 0)
(1.81253e-06 -2.96108e-07 0)
(1.82479e-06 -2.98701e-07 0)
(1.84291e-06 -3.05012e-07 0)
(1.86569e-06 -3.13938e-07 0)
(1.89209e-06 -3.2432e-07 0)
(1.79194e-06 -5.02087e-07 0)
(1.72755e-06 -4.40557e-07 0)
(1.68665e-06 -4.0198e-07 0)
(1.66499e-06 -3.81643e-07 0)
(1.65683e-06 -3.72425e-07 0)
(1.65904e-06 -3.71115e-07 0)
(1.66916e-06 -3.75064e-07 0)
(1.68548e-06 -3.82584e-07 0)
(1.70668e-06 -3.92678e-07 0)
(1.7316e-06 -4.04016e-07 0)
(1.66167e-06 -5.62966e-07 0)
(1.58625e-06 -5.09624e-07 0)
(1.53833e-06 -4.76261e-07 0)
(1.51189e-06 -4.59703e-07 0)
(1.50041e-06 -4.53146e-07 0)
(1.50012e-06 -4.53908e-07 0)
(1.5083e-06 -4.5954e-07 0)
(1.52286e-06 -4.68583e-07 0)
(1.54257e-06 -4.79965e-07 0)
(1.56572e-06 -4.92938e-07 0)
(2.60731e-06 -1.25628e-08 0)
(2.64771e-06 -1.27683e-08 0)
(2.69064e-06 -1.29742e-08 0)
(2.73595e-06 -1.31318e-08 0)
(2.78337e-06 -1.32382e-08 0)
(2.83273e-06 -1.32854e-08 0)
(2.88381e-06 -1.32353e-08 0)
(2.9364e-06 -1.31069e-08 0)
(2.99038e-06 -1.29206e-08 0)
(3.04559e-06 -1.26585e-08 0)
(3.10187e-06 -1.23e-08 0)
(3.15905e-06 -1.18367e-08 0)
(3.21698e-06 -1.12597e-08 0)
(3.2755e-06 -1.05648e-08 0)
(3.33447e-06 -9.74565e-09 0)
(3.39369e-06 -8.78594e-09 0)
(3.45305e-06 -7.66067e-09 0)
(3.5122e-06 -6.34197e-09 0)
(3.57118e-06 -4.80057e-09 0)
(3.6292e-06 -3.02437e-09 0)
(2.58058e-06 -3.88952e-08 0)
(2.6232e-06 -3.93335e-08 0)
(2.66812e-06 -3.9816e-08 0)
(2.71518e-06 -4.01786e-08 0)
(2.76416e-06 -4.03552e-08 0)
(2.81488e-06 -4.03718e-08 0)
(2.86719e-06 -4.01879e-08 0)
(2.92093e-06 -3.98087e-08 0)
(2.97595e-06 -3.92125e-08 0)
(3.03211e-06 -3.83553e-08 0)
(3.08923e-06 -3.72194e-08 0)
(3.14721e-06 -3.58018e-08 0)
(3.20591e-06 -3.40728e-08 0)
(3.26516e-06 -3.19951e-08 0)
(3.32482e-06 -2.95278e-08 0)
(3.3847e-06 -2.66264e-08 0)
(3.44469e-06 -2.32291e-08 0)
(3.50445e-06 -1.92664e-08 0)
(3.56403e-06 -1.4642e-08 0)
(3.6226e-06 -9.31747e-09 0)
(2.52813e-06 -6.85447e-08 0)
(2.57513e-06 -6.87337e-08 0)
(2.62395e-06 -6.90407e-08 0)
(2.67435e-06 -6.92712e-08 0)
(2.72634e-06 -6.92753e-08 0)
(2.77978e-06 -6.90801e-08 0)
(2.83455e-06 -6.85836e-08 0)
(2.89047e-06 -6.77755e-08 0)
(2.94749e-06 -6.66197e-08 0)
(3.00545e-06 -6.50713e-08 0)
(3.06427e-06 -6.31062e-08 0)
(3.12383e-06 -6.06996e-08 0)
(3.18399e-06 -5.77842e-08 0)
(3.2446e-06 -5.42919e-08 0)
(3.30555e-06 -5.01597e-08 0)
(3.36667e-06 -4.53159e-08 0)
(3.42787e-06 -3.96541e-08 0)
(3.48883e-06 -3.30615e-08 0)
(3.5496e-06 -2.53666e-08 0)
(3.60938e-06 -1.65078e-08 0)
(2.45148e-06 -1.03374e-07 0)
(2.50471e-06 -1.0256e-07 0)
(2.55916e-06 -1.0201e-07 0)
(2.6145e-06 -1.01576e-07 0)
(2.67093e-06 -1.00958e-07 0)
(2.72829e-06 -1.0019e-07 0)
(2.7866e-06 -9.9084e-08 0)
(2.84574e-06 -9.76299e-08 0)
(2.90572e-06 -9.5759e-08 0)
(2.96642e-06 -9.33993e-08 0)
(3.02775e-06 -9.04948e-08 0)
(3.08962e-06 -8.69932e-08 0)
(3.15194e-06 -8.28072e-08 0)
(3.21458e-06 -7.78519e-08 0)
(3.27746e-06 -7.2045e-08 0)
(3.34042e-06 -6.52676e-08 0)
(3.40339e-06 -5.73703e-08 0)
(3.46608e-06 -4.81858e-08 0)
(3.52852e-06 -3.74604e-08 0)
(3.59e-06 -2.51328e-08 0)
(2.35294e-06 -1.45036e-07 0)
(2.41405e-06 -1.4223e-07 0)
(2.47566e-06 -1.39956e-07 0)
(2.53721e-06 -1.38197e-07 0)
(2.59928e-06 -1.3639e-07 0)
(2.66167e-06 -1.34595e-07 0)
(2.72456e-06 -1.3252e-07 0)
(2.78786e-06 -1.30134e-07 0)
(2.85162e-06 -1.27303e-07 0)
(2.91578e-06 -1.23923e-07 0)
(2.98032e-06 -1.1992e-07 0)
(3.04519e-06 -1.15214e-07 0)
(3.11033e-06 -1.09685e-07 0)
(3.17563e-06 -1.03218e-07 0)
(3.24104e-06 -9.56985e-08 0)
(3.3064e-06 -8.69663e-08 0)
(3.37169e-06 -7.68293e-08 0)
(3.43661e-06 -6.50744e-08 0)
(3.50126e-06 -5.13646e-08 0)
(3.56494e-06 -3.56365e-08 0)
(2.23525e-06 -1.9476e-07 0)
(2.3054e-06 -1.88805e-07 0)
(2.37542e-06 -1.8375e-07 0)
(2.44435e-06 -1.79845e-07 0)
(2.51316e-06 -1.76186e-07 0)
(2.58159e-06 -1.72824e-07 0)
(2.6499e-06 -1.6932e-07 0)
(2.71817e-06 -1.65617e-07 0)
(2.78649e-06 -1.61532e-07 0)
(2.85485e-06 -1.56914e-07 0)
(2.92328e-06 -1.51653e-07 0)
(2.99178e-06 -1.45623e-07 0)
(3.0603e-06 -1.38666e-07 0)
(3.12877e-06 -1.30633e-07 0)
(3.19719e-06 -1.21368e-07 0)
(3.26542e-06 -1.10679e-07 0)
(3.33349e-06 -9.83187e-08 0)
(3.40109e-06 -8.40405e-08 0)
(3.46841e-06 -6.74297e-08 0)
(3.53474e-06 -4.83776e-08 0)
(2.10173e-06 -2.53221e-07 0)
(2.18176e-06 -2.42974e-07 0)
(2.26106e-06 -2.34106e-07 0)
(2.3382e-06 -2.27172e-07 0)
(2.41449e-06 -2.20932e-07 0)
(2.48969e-06 -2.15371e-07 0)
(2.56418e-06 -2.09968e-07 0)
(2.63809e-06 -2.0456e-07 0)
(2.7116e-06 -1.98908e-07 0)
(2.78477e-06 -1.92809e-07 0)
(2.85767e-06 -1.8609e-07 0)
(2.93032e-06 -1.78576e-07 0)
(3.00271e-06 -1.70068e-07 0)
(3.07485e-06 -1.60388e-07 0)
(3.14673e-06 -1.49335e-07 0)
(3.21829e-06 -1.36682e-07 0)
(3.28956e-06 -1.22123e-07 0)
(3.36028e-06 -1.05366e-07 0)
(3.43064e-06 -8.59321e-08 0)
(3.50001e-06 -6.36601e-08 0)
(1.95558e-06 -3.2066e-07 0)
(2.04579e-06 -3.04777e-07 0)
(2.13488e-06 -2.91008e-07 0)
(2.22082e-06 -2.80046e-07 0)
(2.30525e-06 -2.7049e-07 0)
(2.38781e-06 -2.62086e-07 0)
(2.46913e-06 -2.54286e-07 0)
(2.5493e-06 -2.46777e-07 0)
(2.62855e-06 -2.39245e-07 0)
(2.70704e-06 -2.3142e-07 0)
(2.78486e-06 -2.2306e-07 0)
(2.86208e-06 -2.1393e-07 0)
(2.93878e-06 -2.0379e-07 0)
(3.01498e-06 -1.92422e-07 0)
(3.09073e-06 -1.79579e-07 0)
(3.16599e-06 -1.64983e-07 0)
(3.2408e-06 -1.48279e-07 0)
(3.31498e-06 -1.29119e-07 0)
(3.38871e-06 -1.06964e-07 0)
(3.46146e-06 -8.16034e-08 0)
(1.80027e-06 -3.969e-07 0)
(1.90071e-06 -3.74381e-07 0)
(1.99966e-06 -3.55072e-07 0)
(2.09472e-06 -3.39218e-07 0)
(2.18754e-06 -3.25636e-07 0)
(2.2779e-06 -3.13752e-07 0)
(2.36639e-06 -3.03006e-07 0)
(2.45319e-06 -2.92928e-07 0)
(2.53859e-06 -2.83135e-07 0)
(2.62277e-06 -2.73268e-07 0)
(2.70589e-06 -2.63015e-07 0)
(2.78807e-06 -2.52082e-07 0)
(2.86943e-06 -2.4018e-07 0)
(2.95005e-06 -2.27039e-07 0)
(3.03e-06 -2.12357e-07 0)
(3.10928e-06 -1.958e-07 0)
(3.18794e-06 -1.76968e-07 0)
(3.26586e-06 -1.55455e-07 0)
(3.34326e-06 -1.30681e-07 0)
(3.41969e-06 -1.02383e-07 0)
(1.63887e-06 -4.80714e-07 0)
(1.75003e-06 -4.49556e-07 0)
(1.85862e-06 -4.23901e-07 0)
(1.96312e-06 -4.02395e-07 0)
(2.06446e-06 -3.84217e-07 0)
(2.1629e-06 -3.68419e-07 0)
(2.2588e-06 -3.54357e-07 0)
(2.35248e-06 -3.41434e-07 0)
(2.44427e-06 -3.29174e-07 0)
(2.53438e-06 -3.17123e-07 0)
(2.62302e-06 -3.0489e-07 0)
(2.71037e-06 -2.92114e-07 0)
(2.7966e-06 -2.78446e-07 0)
(2.88181e-06 -2.63561e-07 0)
(2.96611e-06 -2.47098e-07 0)
(3.04955e-06 -2.2867e-07 0)
(3.13222e-06 -2.07839e-07 0)
(3.21404e-06 -1.84122e-07 0)
(3.29528e-06 -1.56914e-07 0)
(3.3756e-06 -1.25868e-07 0)
(1.51792e-06 -5.62596e-07 0)
(1.63658e-06 -5.2402e-07 0)
(1.75119e-06 -4.93348e-07 0)
(1.86186e-06 -4.67052e-07 0)
(1.96889e-06 -4.44626e-07 0)
(2.07268e-06 -4.2503e-07 0)
(2.17358e-06 -4.07553e-07 0)
(2.27194e-06 -3.91571e-07 0)
(2.36806e-06 -3.76542e-07 0)
(2.46219e-06 -3.61965e-07 0)
(2.55456e-06 -3.47408e-07 0)
(2.64538e-06 -3.32472e-07 0)
(2.73482e-06 -3.16767e-07 0)
(2.82303e-06 -2.99928e-07 0)
(2.91012e-06 -2.81562e-07 0)
(2.99619e-06 -2.61239e-07 0)
(3.08136e-06 -2.38526e-07 0)
(3.16563e-06 -2.12881e-07 0)
(3.24926e-06 -1.837e-07 0)
(3.33202e-06 -1.50588e-07 0)
(1.4495e-06 -6.2974e-07 0)
(1.56919e-06 -5.89685e-07 0)
(1.68485e-06 -5.56178e-07 0)
(1.79718e-06 -5.26924e-07 0)
(1.9061e-06 -5.01445e-07 0)
(2.01189e-06 -4.78872e-07 0)
(2.11481e-06 -4.58538e-07 0)
(2.21514e-06 -4.39841e-07 0)
(2.31312e-06 -4.22235e-07 0)
(2.40897e-06 -4.05226e-07 0)
(2.50293e-06 -3.88379e-07 0)
(2.5952e-06 -3.71287e-07 0)
(2.68594e-06 -3.53546e-07 0)
(2.77532e-06 -3.34779e-07 0)
(2.86346e-06 -3.14589e-07 0)
(2.95048e-06 -2.92534e-07 0)
(3.0365e-06 -2.68207e-07 0)
(3.1216e-06 -2.41061e-07 0)
(3.20603e-06 -2.10505e-07 0)
(3.28965e-06 -1.76149e-07 0)
(1.39172e-06 -6.93791e-07 0)
(1.51025e-06 -6.52927e-07 0)
(1.62584e-06 -6.17692e-07 0)
(1.73856e-06 -5.86283e-07 0)
(1.84829e-06 -5.58352e-07 0)
(1.95512e-06 -5.33216e-07 0)
(2.05923e-06 -5.10302e-07 0)
(2.1608e-06 -4.89065e-07 0)
(2.26002e-06 -4.68994e-07 0)
(2.35708e-06 -4.49622e-07 0)
(2.45219e-06 -4.30531e-07 0)
(2.54554e-06 -4.11309e-07 0)
(2.63729e-06 -3.91551e-07 0)
(2.72758e-06 -3.70884e-07 0)
(2.81655e-06 -3.48914e-07 0)
(2.90436e-06 -3.25199e-07 0)
(2.99112e-06 -2.99352e-07 0)
(3.07695e-06 -2.70846e-07 0)
(3.16209e-06 -2.3911e-07 0)
(3.24651e-06 -2.03788e-07 0)
(1.34097e-06 -7.55718e-07 0)
(1.45786e-06 -7.14534e-07 0)
(1.57253e-06 -6.78019e-07 0)
(1.68481e-06 -6.44832e-07 0)
(1.79452e-06 -6.14792e-07 0)
(1.90166e-06 -5.8738e-07 0)
(2.0063e-06 -5.62121e-07 0)
(2.10854e-06 -5.38529e-07 0)
(2.20851e-06 -5.16143e-07 0)
(2.30638e-06 -4.94532e-07 0)
(2.4023e-06 -4.73297e-07 0)
(2.49644e-06 -4.52036e-07 0)
(2.58895e-06 -4.30347e-07 0)
(2.67997e-06 -4.07873e-07 0)
(2.76964e-06 -3.84222e-07 0)
(2.85811e-06 -3.58971e-07 0)
(2.94552e-06 -3.31749e-07 0)
(3.03202e-06 -3.02059e-07 0)
(3.11781e-06 -2.69367e-07 0)
(3.20302e-06 -2.33366e-07 0)
(1.29644e-06 -8.14955e-07 0)
(1.41124e-06 -7.73817e-07 0)
(1.52443e-06 -7.3654e-07 0)
(1.63567e-06 -7.02076e-07 0)
(1.74478e-06 -6.70372e-07 0)
(1.85165e-06 -6.41061e-07 0)
(1.95627e-06 -6.13754e-07 0)
(2.05868e-06 -5.88049e-07 0)
(2.15898e-06 -5.63543e-07 0)
(2.25727e-06 -5.3985e-07 0)
(2.35368e-06 -5.16601e-07 0)
(2.44834e-06 -4.93409e-07 0)
(2.54138e-06 -4.69888e-07 0)
(2.63294e-06 -4.45707e-07 0)
(2.72315e-06 -4.20478e-07 0)
(2.81217e-06 -3.93813e-07 0)
(2.90012e-06 -3.65348e-07 0)
(2.9872e-06 -3.34627e-07 0)
(3.07359e-06 -3.01176e-07 0)
(3.15952e-06 -2.64735e-07 0)
(1.25697e-06 -8.71751e-07 0)
(1.36948e-06 -8.30899e-07 0)
(1.48089e-06 -7.93178e-07 0)
(1.59069e-06 -7.5778e-07 0)
(1.69876e-06 -7.2476e-07 0)
(1.80491e-06 -6.93862e-07 0)
(1.90909e-06 -6.64789e-07 0)
(2.01128e-06 -6.37222e-07 0)
(2.11154e-06 -6.10812e-07 0)
(2.20993e-06 -5.85222e-07 0)
(2.30654e-06 -5.60118e-07 0)
(2.40146e-06 -5.35137e-07 0)
(2.49482e-06 -5.09918e-07 0)
(2.58674e-06 -4.84158e-07 0)
(2.67734e-06 -4.57478e-07 0)
(2.76677e-06 -4.29536e-07 0)
(2.85518e-06 -3.99977e-07 0)
(2.94274e-06 -3.68392e-07 0)
(3.02969e-06 -3.34374e-07 0)
(3.11624e-06 -2.97695e-07 0)
(1.22176e-06 -9.26167e-07 0)
(1.33188e-06 -8.85766e-07 0)
(1.44129e-06 -8.4786e-07 0)
(1.5494e-06 -8.11828e-07 0)
(1.65614e-06 -7.77804e-07 0)
(1.76123e-06 -7.45611e-07 0)
(1.86464e-06 -7.15049e-07 0)
(1.9663e-06 -6.85871e-07 0)
(2.06622e-06 -6.57779e-07 0)
(2.16443e-06 -6.30485e-07 0)
(2.26098e-06 -6.03697e-07 0)
(2.35595e-06 -5.7708e-07 0)
(2.44943e-06 -5.50306e-07 0)
(2.54154e-06 -5.23108e-07 0)
(2.63238e-06 -4.9511e-07 0)
(2.72212e-06 -4.66025e-07 0)
(2.81087e-06 -4.35518e-07 0)
(2.89885e-06 -4.03226e-07 0)
(2.98628e-06 -3.68805e-07 0)
(3.07333e-06 -3.32048e-07 0)
(1.19005e-06 -9.78362e-07 0)
(1.29779e-06 -9.38513e-07 0)
(1.40507e-06 -9.00602e-07 0)
(1.51135e-06 -8.64162e-07 0)
(1.61652e-06 -8.29377e-07 0)
(1.72034e-06 -7.96144e-07 0)
(1.82272e-06 -7.64346e-07 0)
(1.9236e-06 -7.33792e-07 0)
(2.02293e-06 -7.04233e-07 0)
(2.12073e-06 -6.75434e-07 0)
(2.21701e-06 -6.47144e-07 0)
(2.31184e-06 -6.19059e-07 0)
(2.40528e-06 -5.90885e-07 0)
(2.49744e-06 -5.62394e-07 0)
(2.58842e-06 -5.33226e-07 0)
(2.67836e-06 -5.03139e-07 0)
(2.76739e-06 -4.71829e-07 0)
(2.85571e-06 -4.38979e-07 0)
(2.94352e-06 -4.04296e-07 0)
(3.03102e-06 -3.676e-07 0)
(1.16116e-06 -1.0285e-06 0)
(1.26653e-06 -9.89253e-07 0)
(1.37166e-06 -9.5146e-07 0)
(1.47601e-06 -9.14785e-07 0)
(1.5795e-06 -8.7944e-07 0)
(1.68189e-06 -8.45391e-07 0)
(1.78309e-06 -8.12582e-07 0)
(1.883e-06 -7.80869e-07 0)
(1.98157e-06 -7.50052e-07 0)
(2.07877e-06 -7.19942e-07 0)
(2.17463e-06 -6.90333e-07 0)
(2.26917e-06 -6.60951e-07 0)
(2.36245e-06 -6.31541e-07 0)
(2.45455e-06 -6.01907e-07 0)
(2.54556e-06 -5.71716e-07 0)
(2.63563e-06 -5.40767e-07 0)
(2.72486e-06 -5.08792e-07 0)
(2.81347e-06 -4.75512e-07 0)
(2.90156e-06 -4.40683e-07 0)
(2.98947e-06 -4.04173e-07 0)
(1.13451e-06 -1.07674e-06 0)
(1.23756e-06 -1.03811e-06 0)
(1.34054e-06 -1.00052e-06 0)
(1.44292e-06 -9.63739e-07 0)
(1.54469e-06 -9.28e-07 0)
(1.64557e-06 -8.93323e-07 0)
(1.74549e-06 -8.59696e-07 0)
(1.84432e-06 -8.27021e-07 0)
(1.942e-06 -7.95139e-07 0)
(2.0385e-06 -7.63909e-07 0)
(2.13381e-06 -7.33161e-07 0)
(2.22794e-06 -7.02652e-07 0)
(2.32096e-06 -6.72166e-07 0)
(2.41291e-06 -6.41539e-07 0)
(2.50387e-06 -6.10469e-07 0)
(2.59399e-06 -5.78794e-07 0)
(2.68335e-06 -5.46281e-07 0)
(2.77214e-06 -5.12683e-07 0)
(2.86048e-06 -4.77815e-07 0)
(2.94872e-06 -4.41595e-07 0)
(1.10956e-06 -1.12326e-06 0)
(1.21036e-06 -1.08524e-06 0)
(1.31124e-06 -1.0479e-06 0)
(1.4117e-06 -1.0111e-06 0)
(1.51174e-06 -9.75108e-07 0)
(1.61109e-06 -9.39956e-07 0)
(1.70965e-06 -9.05679e-07 0)
(1.80734e-06 -8.72215e-07 0)
(1.90405e-06 -8.39448e-07 0)
(1.99975e-06 -8.07273e-07 0)
(2.09443e-06 -7.75556e-07 0)
(2.18808e-06 -7.44083e-07 0)
(2.28075e-06 -7.12676e-07 0)
(2.37248e-06 -6.81201e-07 0)
(2.46334e-06 -6.49389e-07 0)
(2.55344e-06 -6.17113e-07 0)
(2.64286e-06 -5.84172e-07 0)
(2.73177e-06 -5.50355e-07 0)
(2.82033e-06 -5.15544e-07 0)
(2.90877e-06 -4.7968e-07 0)
(1.08585e-06 -1.16821e-06 0)
(1.18451e-06 -1.13077e-06 0)
(1.28336e-06 -1.09371e-06 0)
(1.38196e-06 -1.05698e-06 0)
(1.48028e-06 -1.02083e-06 0)
(1.57809e-06 -9.85322e-07 0)
(1.67529e-06 -9.50538e-07 0)
(1.77179e-06 -9.16442e-07 0)
(1.86749e-06 -8.8295e-07 0)
(1.96236e-06 -8.49991e-07 0)
(2.05636e-06 -8.17463e-07 0)
(2.1495e-06 -7.85181e-07 0)
(2.24178e-06 -7.52998e-07 0)
(2.33326e-06 -7.20815e-07 0)
(2.42397e-06 -6.88388e-07 0)
(2.51401e-06 -6.55624e-07 0)
(2.60345e-06 -6.22352e-07 0)
(2.69244e-06 -5.8841e-07 0)
(2.78115e-06 -5.53731e-07 0)
(2.86976e-06 -5.18253e-07 0)
(1.06301e-06 -1.21173e-06 0)
(1.15963e-06 -1.17483e-06 0)
(1.25653e-06 -1.13808e-06 0)
(1.35332e-06 -1.10145e-06 0)
(1.44998e-06 -1.06522e-06 0)
(1.54627e-06 -1.02947e-06 0)
(1.64213e-06 -9.94304e-07 0)
(1.73745e-06 -9.59714e-07 0)
(1.83216e-06 -9.25646e-07 0)
(1.9262e-06 -8.92053e-07 0)
(2.01952e-06 -8.58865e-07 0)
(2.11212e-06 -8.2592e-07 0)
(2.204e-06 -7.93102e-07 0)
(2.29519e-06 -7.60337e-07 0)
(2.38571e-06 -7.2741e-07 0)
(2.47565e-06 -6.94256e-07 0)
(2.56505e-06 -6.6074e-07 0)
(2.65411e-06 -6.2675e-07 0)
(2.74287e-06 -5.9225e-07 0)
(2.83162e-06 -5.57192e-07 0)
(1.04066e-06 -1.25394e-06 0)
(1.13535e-06 -1.21757e-06 0)
(1.23039e-06 -1.18111e-06 0)
(1.32544e-06 -1.14462e-06 0)
(1.42049e-06 -1.10837e-06 0)
(1.51534e-06 -1.07246e-06 0)
(1.60992e-06 -1.03703e-06 0)
(1.70411e-06 -1.00208e-06 0)
(1.79785e-06 -9.67569e-07 0)
(1.89107e-06 -9.33476e-07 0)
(1.98372e-06 -8.99757e-07 0)
(2.07577e-06 -8.66274e-07 0)
(2.16724e-06 -8.32939e-07 0)
(2.25813e-06 -7.99702e-07 0)
(2.34844e-06 -7.66374e-07 0)
(2.43826e-06 -7.32914e-07 0)
(2.52761e-06 -6.99235e-07 0)
(2.61668e-06 -6.65252e-07 0)
(2.70546e-06 -6.30958e-07 0)
(2.79428e-06 -5.96367e-07 0)
(1.01841e-06 -1.29497e-06 0)
(1.11126e-06 -1.25907e-06 0)
(1.20454e-06 -1.22291e-06 0)
(1.29795e-06 -1.1866e-06 0)
(1.39151e-06 -1.15039e-06 0)
(1.48499e-06 -1.11441e-06 0)
(1.57837e-06 -1.0788e-06 0)
(1.67149e-06 -1.04359e-06 0)
(1.76432e-06 -1.00875e-06 0)
(1.85678e-06 -9.7427e-07 0)
(1.9488e-06 -9.40144e-07 0)
(2.04037e-06 -9.06247e-07 0)
(2.13146e-06 -8.72508e-07 0)
(2.22206e-06 -8.38899e-07 0)
(2.31218e-06 -8.05254e-07 0)
(2.40187e-06 -7.71564e-07 0)
(2.49118e-06 -7.3778e-07 0)
(2.5802e-06 -7.03847e-07 0)
(2.66902e-06 -6.69792e-07 0)
(2.75785e-06 -6.35658e-07 0)
(9.95875e-07 -1.33492e-06 0)
(1.08698e-06 -1.2995e-06 0)
(1.1786e-06 -1.26359e-06 0)
(1.27051e-06 -1.22747e-06 0)
(1.36268e-06 -1.19136e-06 0)
(1.45493e-06 -1.15539e-06 0)
(1.54722e-06 -1.11969e-06 0)
(1.63939e-06 -1.08431e-06 0)
(1.73139e-06 -1.04925e-06 0)
(1.82314e-06 -1.0145e-06 0)
(1.9146e-06 -9.80074e-07 0)
(2.00571e-06 -9.45865e-07 0)
(2.09645e-06 -9.11815e-07 0)
(2.18679e-06 -8.77911e-07 0)
(2.27672e-06 -8.44014e-07 0)
(2.36631e-06 -8.1016e-07 0)
(2.45556e-06 -7.76319e-07 0)
(2.54454e-06 -7.42451e-07 0)
(2.63337e-06 -7.08651e-07 0)
(2.72222e-06 -6.74967e-07 0)
(9.72653e-07 -1.37394e-06 0)
(1.06209e-06 -1.33886e-06 0)
(1.15214e-06 -1.30328e-06 0)
(1.24275e-06 -1.26742e-06 0)
(1.33367e-06 -1.23145e-06 0)
(1.42485e-06 -1.19553e-06 0)
(1.51615e-06 -1.15981e-06 0)
(1.60749e-06 -1.12435e-06 0)
(1.69879e-06 -1.08914e-06 0)
(1.78995e-06 -1.05422e-06 0)
(1.88093e-06 -1.01959e-06 0)
(1.97166e-06 -9.8515e-07 0)
(2.0621e-06 -9.5086e-07 0)
(2.15224e-06 -9.16736e-07 0)
(2.24204e-06 -8.82667e-07 0)
(2.33156e-06 -8.48689e-07 0)
(2.42076e-06 -8.14795e-07 0)
(2.50976e-06 -7.81003e-07 0)
(2.59853e-06 -7.47452e-07 0)
(2.68737e-06 -7.14196e-07 0)
(9.48234e-07 -1.412e-06 0)
(1.03624e-06 -1.37731e-06 0)
(1.12501e-06 -1.34211e-06 0)
(1.21438e-06 -1.30651e-06 0)
(1.30425e-06 -1.27073e-06 0)
(1.39448e-06 -1.23493e-06 0)
(1.48498e-06 -1.19925e-06 0)
(1.57563e-06 -1.16379e-06 0)
(1.66635e-06 -1.12853e-06 0)
(1.75705e-06 -1.09351e-06 0)
(1.84765e-06 -1.05875e-06 0)
(1.93809e-06 -1.02415e-06 0)
(2.02831e-06 -9.89704e-07 0)
(2.11831e-06 -9.55421e-07 0)
(2.20805e-06 -9.2122e-07 0)
(2.29754e-06 -8.87149e-07 0)
(2.38671e-06 -8.53209e-07 0)
(2.47576e-06 -8.19474e-07 0)
(2.56456e-06 -7.86147e-07 0)
(2.65333e-06 -7.53309e-07 0)
(9.22248e-07 -1.44947e-06 0)
(1.00894e-06 -1.4152e-06 0)
(1.09658e-06 -1.38031e-06 0)
(1.18495e-06 -1.34499e-06 0)
(1.27396e-06 -1.30942e-06 0)
(1.36347e-06 -1.27377e-06 0)
(1.45336e-06 -1.2382e-06 0)
(1.54353e-06 -1.20279e-06 0)
(1.63386e-06 -1.16754e-06 0)
(1.72423e-06 -1.13248e-06 0)
(1.81458e-06 -1.09764e-06 0)
(1.90484e-06 -1.06294e-06 0)
(1.99496e-06 -1.02839e-06 0)
(2.08489e-06 -9.94016e-07 0)
(2.1746e-06 -9.59693e-07 0)
(2.26412e-06 -9.25508e-07 0)
(2.35342e-06 -8.91556e-07 0)
(2.44249e-06 -8.5785e-07 0)
(2.53138e-06 -8.24643e-07 0)
(2.62015e-06 -7.9216e-07 0)
(8.94402e-07 -1.48609e-06 0)
(9.79994e-07 -1.45229e-06 0)
(1.06669e-06 -1.41782e-06 0)
(1.15429e-06 -1.38284e-06 0)
(1.24269e-06 -1.34755e-06 0)
(1.33172e-06 -1.31213e-06 0)
(1.42126e-06 -1.27674e-06 0)
(1.51115e-06 -1.24145e-06 0)
(1.60126e-06 -1.20624e-06 0)
(1.6915e-06 -1.17118e-06 0)
(1.78176e-06 -1.13634e-06 0)
(1.87195e-06 -1.10162e-06 0)
(1.96204e-06 -1.06698e-06 0)
(2.05199e-06 -1.03251e-06 0)
(2.14174e-06 -9.98142e-07 0)
(2.23134e-06 -9.63883e-07 0)
(2.32081e-06 -9.2987e-07 0)
(2.41005e-06 -8.96122e-07 0)
(2.49916e-06 -8.62951e-07 0)
(2.58804e-06 -8.30682e-07 0)
(6.37335e-08 -1.24967e-06 0)
(1.92008e-07 -1.2314e-06 0)
(3.22638e-07 -1.19553e-06 0)
(4.57008e-07 -1.14357e-06 0)
(5.96133e-07 -1.07753e-06 0)
(7.40664e-07 -9.99857e-07 0)
(8.90829e-07 -9.13464e-07 0)
(1.04633e-06 -8.21245e-07 0)
(1.20683e-06 -7.2619e-07 0)
(1.37092e-06 -6.30566e-07 0)
(6.20181e-08 -1.27131e-06 0)
(1.86752e-07 -1.2546e-06 0)
(3.13411e-07 -1.22178e-06 0)
(4.43182e-07 -1.17414e-06 0)
(5.76916e-07 -1.11338e-06 0)
(7.15129e-07 -1.04158e-06 0)
(8.58077e-07 -9.61204e-07 0)
(1.00531e-06 -8.7482e-07 0)
(1.15644e-06 -7.85068e-07 0)
(1.30992e-06 -6.94317e-07 0)
(6.04724e-08 -1.29343e-06 0)
(1.82004e-07 -1.27814e-06 0)
(3.05103e-07 -1.24807e-06 0)
(4.30685e-07 -1.20435e-06 0)
(5.59511e-07 -1.14847e-06 0)
(6.91952e-07 -1.08223e-06 0)
(8.28303e-07 -1.00775e-06 0)
(9.68268e-07 -9.27221e-07 0)
(1.11161e-06 -8.42859e-07 0)
(1.25715e-06 -7.56589e-07 0)
(5.91103e-08 -1.31606e-06 0)
(1.77792e-07 -1.30197e-06 0)
(2.97818e-07 -1.27427e-06 0)
(4.19842e-07 -1.23392e-06 0)
(5.44549e-07 -1.18225e-06 0)
(6.72198e-07 -1.12085e-06 0)
(8.03021e-07 -1.05156e-06 0)
(9.36736e-07 -9.7638e-07 0)
(1.07311e-06 -8.97332e-07 0)
(1.21118e-06 -8.16123e-07 0)
(5.78725e-08 -1.33921e-06 0)
(1.73937e-07 -1.32621e-06 0)
(2.91139e-07 -1.30064e-06 0)
(4.09954e-07 -1.26333e-06 0)
(5.30973e-07 -1.21547e-06 0)
(6.54393e-07 -1.15851e-06 0)
(7.80417e-07 -1.09406e-06 0)
(9.08809e-07 -1.02383e-06 0)
(1.03937e-06 -9.49665e-07 0)
(1.17112e-06 -8.73147e-07 0)
(5.67038e-08 -1.36286e-06 0)
(1.70389e-07 -1.35079e-06 0)
(2.85007e-07 -1.32706e-06 0)
(4.00965e-07 -1.29244e-06 0)
(5.18736e-07 -1.24794e-06 0)
(6.38487e-07 -1.19491e-06 0)
(7.60319e-07 -1.13482e-06 0)
(8.84037e-07 -1.06915e-06 0)
(1.00952e-06 -9.99611e-07 0)
(1.13576e-06 -9.27699e-07 0)
(5.55871e-08 -1.38696e-06 0)
(1.67026e-07 -1.37575e-06 0)
(2.79229e-07 -1.35366e-06 0)
(3.92571e-07 -1.32145e-06 0)
(5.07385e-07 -1.27998e-06 0)
(6.23865e-07 -1.23051e-06 0)
(7.42046e-07 -1.17437e-06 0)
(8.61713e-07 -1.11287e-06 0)
(9.8283e-07 -1.04755e-06 0)
(1.10435e-06 -9.79922e-07 0)
(5.45446e-08 -1.41149e-06 0)
(1.63816e-07 -1.40103e-06 0)
(2.73744e-07 -1.38041e-06 0)
(3.84656e-07 -1.35033e-06 0)
(4.96782e-07 -1.31158e-06 0)
(6.10295e-07 -1.26529e-06 0)
(7.25224e-07 -1.21273e-06 0)
(8.41336e-07 -1.15505e-06 0)
(9.5865e-07 -1.09364e-06 0)
(1.07612e-06 -1.03e-06 0)
(5.35297e-08 -1.43641e-06 0)
(1.60695e-07 -1.42663e-06 0)
(2.68452e-07 -1.40732e-06 0)
(3.77052e-07 -1.37917e-06 0)
(4.86687e-07 -1.34287e-06 0)
(5.97504e-07 -1.29946e-06 0)
(7.09503e-07 -1.25012e-06 0)
(8.22465e-07 -1.19593e-06 0)
(9.36441e-07 -1.1381e-06 0)
(1.05042e-06 -1.07811e-06 0)
(5.25016e-08 -1.46168e-06 0)
(1.57627e-07 -1.4525e-06 0)
(2.6328e-07 -1.43438e-06 0)
(3.69663e-07 -1.40795e-06 0)
(4.76939e-07 -1.37387e-06 0)
(5.85265e-07 -1.33306e-06 0)
(6.94592e-07 -1.28665e-06 0)
(8.04724e-07 -1.23563e-06 0)
(9.15732e-07 -1.18108e-06 0)
(1.02665e-06 -1.12445e-06 0)
(5.14667e-08 -1.48723e-06 0)
(1.54588e-07 -1.47862e-06 0)
(2.5815e-07 -1.46158e-06 0)
(3.62386e-07 -1.4367e-06 0)
(4.67396e-07 -1.40463e-06 0)
(5.73369e-07 -1.36619e-06 0)
(6.80231e-07 -1.32242e-06 0)
(7.87787e-07 -1.27429e-06 0)
(8.9612e-07 -1.22275e-06 0)
(1.00434e-06 -1.16918e-06 0)
(5.04429e-08 -1.51302e-06 0)
(1.51548e-07 -1.50495e-06 0)
(2.53005e-07 -1.48887e-06 0)
(3.55123e-07 -1.4654e-06 0)
(4.57941e-07 -1.43515e-06 0)
(5.61649e-07 -1.39886e-06 0)
(6.66193e-07 -1.35751e-06 0)
(7.71368e-07 -1.31202e-06 0)
(8.77261e-07 -1.26324e-06 0)
(9.83069e-07 -1.21246e-06 0)
(4.94156e-08 -1.53903e-06 0)
(1.48445e-07 -1.53142e-06 0)
(2.47768e-07 -1.51623e-06 0)
(3.47761e-07 -1.49404e-06 0)
(4.48424e-07 -1.46545e-06 0)
(5.49925e-07 -1.43114e-06 0)
(6.5225e-07 -1.392e-06 0)
(7.55194e-07 -1.34891e-06 0)
(8.58843e-07 -1.30264e-06 0)
(9.62498e-07 -1.25444e-06 0)
(4.8348e-08 -1.56516e-06 0)
(1.45211e-07 -1.55796e-06 0)
(2.4236e-07 -1.5436e-06 0)
(3.40184e-07 -1.52259e-06 0)
(4.38689e-07 -1.49552e-06 0)
(5.38015e-07 -1.46301e-06 0)
(6.38181e-07 -1.4259e-06 0)
(7.39007e-07 -1.38502e-06 0)
(8.40572e-07 -1.34109e-06 0)
(9.42254e-07 -1.29523e-06 0)
(4.72141e-08 -1.59136e-06 0)
(1.41805e-07 -1.58452e-06 0)
(2.36711e-07 -1.57092e-06 0)
(3.32292e-07 -1.55101e-06 0)
(4.28595e-07 -1.52534e-06 0)
(5.25739e-07 -1.49451e-06 0)
(6.23768e-07 -1.45927e-06 0)
(7.22548e-07 -1.42044e-06 0)
(8.22118e-07 -1.37866e-06 0)
(9.21943e-07 -1.33496e-06 0)
(4.60074e-08 -1.61749e-06 0)
(1.38203e-07 -1.61099e-06 0)
(2.30756e-07 -1.59812e-06 0)
(3.23989e-07 -1.57923e-06 0)
(4.18004e-07 -1.55486e-06 0)
(5.12917e-07 -1.52558e-06 0)
(6.08797e-07 -1.4921e-06 0)
(7.05557e-07 -1.45517e-06 0)
(8.03165e-07 -1.41539e-06 0)
(9.01234e-07 -1.37368e-06 0)
(4.47234e-08 -1.64352e-06 0)
(1.34367e-07 -1.63735e-06 0)
(2.24405e-07 -1.62516e-06 0)
(3.15145e-07 -1.60724e-06 0)
(4.06753e-07 -1.5841e-06 0)
(4.99346e-07 -1.55628e-06 0)
(5.93024e-07 -1.52446e-06 0)
(6.87704e-07 -1.48931e-06 0)
(7.83374e-07 -1.45139e-06 0)
(8.79697e-07 -1.41157e-06 0)
(4.33436e-08 -1.66924e-06 0)
(1.30227e-07 -1.66339e-06 0)
(2.17547e-07 -1.65183e-06 0)
(3.05612e-07 -1.63484e-06 0)
(3.94643e-07 -1.61288e-06 0)
(4.84788e-07 -1.58646e-06 0)
(5.76156e-07 -1.5562e-06 0)
(6.68664e-07 -1.52274e-06 0)
(7.62378e-07 -1.4866e-06 0)
(8.56956e-07 -1.44856e-06 0)
(4.18316e-08 -1.69472e-06 0)
(1.25682e-07 -1.68918e-06 0)
(2.10024e-07 -1.67824e-06 0)
(2.95192e-07 -1.66214e-06 0)
(3.81437e-07 -1.64133e-06 0)
(4.68945e-07 -1.61627e-06 0)
(5.57836e-07 -1.58752e-06 0)
(6.48083e-07 -1.55569e-06 0)
(7.39717e-07 -1.52126e-06 0)
(8.32532e-07 -1.48494e-06 0)
(4.01705e-08 -1.71936e-06 0)
(1.20703e-07 -1.71413e-06 0)
(2.01783e-07 -1.7038e-06 0)
(2.83781e-07 -1.68861e-06 0)
(3.67001e-07 -1.66893e-06 0)
(4.51662e-07 -1.64522e-06 0)
(5.37883e-07 -1.61798e-06 0)
(6.25771e-07 -1.58776e-06 0)
(7.15237e-07 -1.55504e-06 0)
(8.06255e-07 -1.52045e-06 0)
)


// ************************************************************************* //
