/*--------------------------------*- C++ -*----------------------------------*\
| =========                 |                                                 |
| \\      /  F ield         | foam-extend: Open Source CFD                    |
|  \\    /   O peration     | Version:     4.1                                |
|   \\  /    A nd           | Web:         http://www.foam-extend.org         |
|    \\/     M anipulation  |                                                 |
\*---------------------------------------------------------------------------*/
FoamFile
{
    version     2.0;
    format      ascii;
    class       vectorField;
    location    "3";
    object      solidsCellD_iteration1;
}
// * * * * * * * * * * * * * * * * * * * * * * * * * * * * * * * * * * * * * //


1000
(
(1.31349e-06 -4.86955e-07 0)
(1.25017e-06 -4.55276e-07 0)
(1.21134e-06 -4.35883e-07 0)
(1.19102e-06 -4.27763e-07 0)
(1.18354e-06 -4.26123e-07 0)
(1.1855e-06 -4.29529e-07 0)
(1.19441e-06 -4.36254e-07 0)
(1.20851e-06 -4.45562e-07 0)
(1.22615e-06 -4.56805e-07 0)
(1.2456e-06 -4.69956e-07 0)
(1.18907e-06 -5.3202e-07 0)
(1.12139e-06 -5.10693e-07 0)
(1.0796e-06 -4.97971e-07 0)
(1.05693e-06 -4.9443e-07 0)
(1.04739e-06 -4.95859e-07 0)
(1.04724e-06 -5.01509e-07 0)
(1.0539e-06 -5.09893e-07 0)
(1.06547e-06 -5.20418e-07 0)
(1.08038e-06 -5.32573e-07 0)
(1.09719e-06 -5.45787e-07 0)
(1.05934e-06 -5.74761e-07 0)
(9.90002e-07 -5.64996e-07 0)
(9.46989e-07 -5.59612e-07 0)
(9.23029e-07 -5.61074e-07 0)
(9.121e-07 -5.65791e-07 0)
(9.10327e-07 -5.73695e-07 0)
(9.15134e-07 -5.83627e-07 0)
(9.24677e-07 -5.95155e-07 0)
(9.3748e-07 -6.07929e-07 0)
(9.5238e-07 -6.21298e-07 0)
(9.25284e-07 -6.14377e-07 0)
(8.57251e-07 -6.16731e-07 0)
(8.14873e-07 -6.19014e-07 0)
(7.90808e-07 -6.25602e-07 0)
(7.79245e-07 -6.33678e-07 0)
(7.76393e-07 -6.43842e-07 0)
(7.79774e-07 -6.55246e-07 0)
(7.87625e-07 -6.67737e-07 0)
(7.98629e-07 -6.81143e-07 0)
(8.11687e-07 -6.94845e-07 0)
(7.87804e-07 -6.50095e-07 0)
(7.24053e-07 -6.64431e-07 0)
(6.84185e-07 -6.74316e-07 0)
(6.6123e-07 -6.85953e-07 0)
(6.49839e-07 -6.97261e-07 0)
(6.46423e-07 -7.09588e-07 0)
(6.48719e-07 -7.2242e-07 0)
(6.55083e-07 -7.35852e-07 0)
(6.644e-07 -7.49882e-07 0)
(6.75602e-07 -7.64024e-07 0)
(6.4767e-07 -6.81169e-07 0)
(5.91001e-07 -7.0671e-07 0)
(5.55502e-07 -7.23659e-07 0)
(5.34858e-07 -7.39995e-07 0)
(5.24388e-07 -7.5434e-07 0)
(5.20863e-07 -7.68696e-07 0)
(5.22351e-07 -7.82829e-07 0)
(5.27387e-07 -7.97143e-07 0)
(5.35041e-07 -8.11767e-07 0)
(5.44318e-07 -8.26394e-07 0)
(5.05575e-07 -7.06905e-07 0)
(4.58536e-07 -7.42247e-07 0)
(4.29051e-07 -7.654e-07 0)
(4.11782e-07 -7.85841e-07 0)
(4.02881e-07 -8.02829e-07 0)
(3.99672e-07 -8.18963e-07 0)
(4.00584e-07 -8.34237e-07 0)
(4.044e-07 -8.49348e-07 0)
(4.10381e-07 -8.64515e-07 0)
(4.17666e-07 -8.79623e-07 0)
(3.62083e-07 -7.26727e-07 0)
(3.26829e-07 -7.69948e-07 0)
(3.04725e-07 -7.98093e-07 0)
(2.91727e-07 -8.21812e-07 0)
(2.84941e-07 -8.40915e-07 0)
(2.82387e-07 -8.58465e-07 0)
(2.82904e-07 -8.7467e-07 0)
(2.85576e-07 -8.90438e-07 0)
(2.89864e-07 -9.06032e-07 0)
(2.95098e-07 -9.21528e-07 0)
(2.17664e-07 -7.4019e-07 0)
(1.95829e-07 -7.88911e-07 0)
(1.82128e-07 -8.20561e-07 0)
(1.74034e-07 -8.46594e-07 0)
(1.69771e-07 -8.67175e-07 0)
(1.68132e-07 -8.85704e-07 0)
(1.68398e-07 -9.02564e-07 0)
(1.6998e-07 -9.1881e-07 0)
(1.72551e-07 -9.34735e-07 0)
(1.75698e-07 -9.50548e-07 0)
(7.27044e-08 -7.46966e-07 0)
(6.52869e-08 -7.98505e-07 0)
(6.06294e-08 -8.31967e-07 0)
(5.78813e-08 -8.59199e-07 0)
(5.64298e-08 -8.80537e-07 0)
(5.58523e-08 -8.99571e-07 0)
(5.59168e-08 -9.16755e-07 0)
(5.64361e-08 -9.33224e-07 0)
(5.72934e-08 -9.49296e-07 0)
(5.83407e-08 -9.65255e-07 0)
(2.03091e-06 -2.21819e-08 0)
(2.04856e-06 -1.61001e-08 0)
(2.06146e-06 -1.2276e-08 0)
(2.07629e-06 -1.00613e-08 0)
(2.09295e-06 -8.86328e-09 0)
(2.11295e-06 -8.35078e-09 0)
(2.13608e-06 -8.29498e-09 0)
(2.16242e-06 -8.54112e-09 0)
(2.19184e-06 -8.99951e-09 0)
(2.22396e-06 -9.53149e-09 0)
(2.01633e-06 -6.65442e-08 0)
(2.03128e-06 -4.86673e-08 0)
(2.04248e-06 -3.74484e-08 0)
(2.05621e-06 -3.09766e-08 0)
(2.07215e-06 -2.7498e-08 0)
(2.09162e-06 -2.60261e-08 0)
(2.11439e-06 -2.58974e-08 0)
(2.14042e-06 -2.66592e-08 0)
(2.16956e-06 -2.80404e-08 0)
(2.20138e-06 -2.96421e-08 0)
(1.98715e-06 -1.11298e-07 0)
(1.99703e-06 -8.26208e-08 0)
(2.00499e-06 -6.46417e-08 0)
(2.01659e-06 -5.42986e-08 0)
(2.03115e-06 -4.87772e-08 0)
(2.04965e-06 -4.64996e-08 0)
(2.07172e-06 -4.63802e-08 0)
(2.09719e-06 -4.76917e-08 0)
(2.1259e-06 -4.99948e-08 0)
(2.15726e-06 -5.26697e-08 0)
(1.94387e-06 -1.56632e-07 0)
(1.94652e-06 -1.18739e-07 0)
(1.94987e-06 -9.49995e-08 0)
(1.95844e-06 -8.14148e-08 0)
(1.97099e-06 -7.4225e-08 0)
(1.98806e-06 -7.13622e-08 0)
(2.00911e-06 -7.13738e-08 0)
(2.03379e-06 -7.32996e-08 0)
(2.06186e-06 -7.65403e-08 0)
(2.09253e-06 -8.03017e-08 0)
(1.88707e-06 -2.02678e-07 0)
(1.88078e-06 -1.57668e-07 0)
(1.87844e-06 -1.29494e-07 0)
(1.88321e-06 -1.13505e-07 0)
(1.89327e-06 -1.05149e-07 0)
(1.90861e-06 -1.01997e-07 0)
(1.92841e-06 -1.02301e-07 0)
(1.95212e-06 -1.04921e-07 0)
(1.97941e-06 -1.09115e-07 0)
(2.0093e-06 -1.13977e-07 0)
(1.81755e-06 -2.49458e-07 0)
(1.80107e-06 -1.99827e-07 0)
(1.79229e-06 -1.68785e-07 0)
(1.79276e-06 -1.5138e-07 0)
(1.79997e-06 -1.42459e-07 0)
(1.81332e-06 -1.39377e-07 0)
(1.83167e-06 -1.40161e-07 0)
(1.85426e-06 -1.43567e-07 0)
(1.88067e-06 -1.48726e-07 0)
(1.90976e-06 -1.547e-07 0)
(1.73621e-06 -2.96885e-07 0)
(1.70894e-06 -2.45389e-07 0)
(1.69334e-06 -2.13211e-07 0)
(1.68925e-06 -1.95489e-07 0)
(1.6934e-06 -1.86676e-07 0)
(1.70458e-06 -1.84062e-07 0)
(1.72136e-06 -1.85545e-07 0)
(1.74274e-06 -1.89848e-07 0)
(1.76822e-06 -1.96014e-07 0)
(1.79659e-06 -2.03117e-07 0)
(1.64405e-06 -3.44737e-07 0)
(1.60605e-06 -2.94248e-07 0)
(1.58362e-06 -2.62742e-07 0)
(1.57493e-06 -2.45838e-07 0)
(1.57596e-06 -2.3784e-07 0)
(1.58487e-06 -2.36118e-07 0)
(1.59999e-06 -2.38525e-07 0)
(1.6201e-06 -2.43839e-07 0)
(1.64461e-06 -2.51044e-07 0)
(1.67239e-06 -2.5932e-07 0)
(1.54214e-06 -3.92679e-07 0)
(1.49415e-06 -3.46011e-07 0)
(1.46531e-06 -3.16959e-07 0)
(1.45223e-06 -3.01994e-07 0)
(1.45022e-06 -2.95506e-07 0)
(1.45685e-06 -2.95108e-07 0)
(1.47018e-06 -2.98708e-07 0)
(1.48889e-06 -3.05164e-07 0)
(1.51225e-06 -3.1353e-07 0)
(1.53956e-06 -3.23005e-07 0)
(1.4316e-06 -4.40254e-07 0)
(1.37498e-06 -3.99994e-07 0)
(1.34054e-06 -3.75056e-07 0)
(1.32349e-06 -3.63078e-07 0)
(1.3186e-06 -3.58745e-07 0)
(1.32288e-06 -3.60091e-07 0)
(1.3342e-06 -3.6515e-07 0)
(1.35113e-06 -3.72976e-07 0)
(1.37289e-06 -3.82682e-07 0)
(1.39941e-06 -3.93903e-07 0)
(2.25869e-06 -1.00654e-08 0)
(2.29641e-06 -1.0236e-08 0)
(2.33648e-06 -1.04293e-08 0)
(2.37874e-06 -1.05939e-08 0)
(2.42296e-06 -1.07155e-08 0)
(2.469e-06 -1.07821e-08 0)
(2.51668e-06 -1.07844e-08 0)
(2.56583e-06 -1.07333e-08 0)
(2.61627e-06 -1.06297e-08 0)
(2.66785e-06 -1.04623e-08 0)
(2.72043e-06 -1.02116e-08 0)
(2.77386e-06 -9.86869e-09 0)
(2.828e-06 -9.43193e-09 0)
(2.88269e-06 -8.89761e-09 0)
(2.93779e-06 -8.25476e-09 0)
(2.99309e-06 -7.48954e-09 0)
(3.0485e-06 -6.58535e-09 0)
(3.10369e-06 -5.52547e-09 0)
(3.1587e-06 -4.2857e-09 0)
(3.21282e-06 -2.86198e-09 0)
(2.23702e-06 -3.11528e-08 0)
(2.27644e-06 -3.15466e-08 0)
(2.31805e-06 -3.20161e-08 0)
(2.3617e-06 -3.24078e-08 0)
(2.4072e-06 -3.26796e-08 0)
(2.4544e-06 -3.2815e-08 0)
(2.50315e-06 -3.27813e-08 0)
(2.55328e-06 -3.25859e-08 0)
(2.60462e-06 -3.22142e-08 0)
(2.65702e-06 -3.16467e-08 0)
(2.71036e-06 -3.08481e-08 0)
(2.76449e-06 -2.97961e-08 0)
(2.81931e-06 -2.84744e-08 0)
(2.87464e-06 -2.68619e-08 0)
(2.93034e-06 -2.49248e-08 0)
(2.98621e-06 -2.26235e-08 0)
(3.04215e-06 -1.99084e-08 0)
(3.09783e-06 -1.67307e-08 0)
(3.15334e-06 -1.30179e-08 0)
(3.20798e-06 -8.75417e-09 0)
(2.19476e-06 -5.48662e-08 0)
(2.23755e-06 -5.51088e-08 0)
(2.28224e-06 -5.55142e-08 0)
(2.32858e-06 -5.5871e-08 0)
(2.37649e-06 -5.60724e-08 0)
(2.42587e-06 -5.6102e-08 0)
(2.47662e-06 -5.58885e-08 0)
(2.52857e-06 -5.54285e-08 0)
(2.58159e-06 -5.46826e-08 0)
(2.63555e-06 -5.36221e-08 0)
(2.69036e-06 -5.22011e-08 0)
(2.74589e-06 -5.03858e-08 0)
(2.80201e-06 -4.81406e-08 0)
(2.85857e-06 -4.54215e-08 0)
(2.91545e-06 -4.21686e-08 0)
(2.97247e-06 -3.83146e-08 0)
(3.02951e-06 -3.3777e-08 0)
(3.08626e-06 -2.84793e-08 0)
(3.14283e-06 -2.23023e-08 0)
(3.19849e-06 -1.52153e-08 0)
(2.13269e-06 -8.27257e-08 0)
(2.18033e-06 -8.22198e-08 0)
(2.22949e-06 -8.20143e-08 0)
(2.2798e-06 -8.19235e-08 0)
(2.33136e-06 -8.17096e-08 0)
(2.38401e-06 -8.13552e-08 0)
(2.43773e-06 -8.07295e-08 0)
(2.49238e-06 -7.98148e-08 0)
(2.5479e-06 -7.85447e-08 0)
(2.60418e-06 -7.68718e-08 0)
(2.66116e-06 -7.47311e-08 0)
(2.71872e-06 -7.20723e-08 0)
(2.77676e-06 -6.88373e-08 0)
(2.83512e-06 -6.49577e-08 0)
(2.8937e-06 -6.03492e-08 0)
(2.95237e-06 -5.49179e-08 0)
(3.011e-06 -4.85492e-08 0)
(3.06932e-06 -4.11391e-08 0)
(3.12742e-06 -3.25174e-08 0)
(3.18457e-06 -2.26323e-08 0)
(2.05279e-06 -1.16059e-07 0)
(2.10657e-06 -1.14054e-07 0)
(2.16144e-06 -1.12543e-07 0)
(2.21681e-06 -1.1147e-07 0)
(2.273e-06 -1.10391e-07 0)
(2.32982e-06 -1.0929e-07 0)
(2.3874e-06 -1.07959e-07 0)
(2.44557e-06 -1.06347e-07 0)
(2.50433e-06 -1.04355e-07 0)
(2.56362e-06 -1.01908e-07 0)
(2.62339e-06 -9.8912e-08 0)
(2.68355e-06 -9.52943e-08 0)
(2.74402e-06 -9.09723e-08 0)
(2.80471e-06 -8.58552e-08 0)
(2.86555e-06 -7.98351e-08 0)
(2.92634e-06 -7.27937e-08 0)
(2.98704e-06 -6.45859e-08 0)
(3.04736e-06 -5.50742e-08 0)
(3.10743e-06 -4.40344e-08 0)
(3.16652e-06 -3.13787e-08 0)
(1.95711e-06 -1.55807e-07 0)
(2.01807e-06 -1.51449e-07 0)
(2.07974e-06 -1.47838e-07 0)
(2.14115e-06 -1.45149e-07 0)
(2.20293e-06 -1.42679e-07 0)
(2.26481e-06 -1.40392e-07 0)
(2.32701e-06 -1.37994e-07 0)
(2.38942e-06 -1.35386e-07 0)
(2.45208e-06 -1.32422e-07 0)
(2.51496e-06 -1.28991e-07 0)
(2.57808e-06 -1.24973e-07 0)
(2.64138e-06 -1.20265e-07 0)
(2.70478e-06 -1.14756e-07 0)
(2.76825e-06 -1.08329e-07 0)
(2.83174e-06 -1.00852e-07 0)
(2.89505e-06 -9.21792e-08 0)
(2.9582e-06 -8.21338e-08 0)
(3.02089e-06 -7.05383e-08 0)
(3.08331e-06 -5.7107e-08 0)
(3.14475e-06 -4.17057e-08 0)
(1.84819e-06 -2.02627e-07 0)
(1.91711e-06 -1.95046e-07 0)
(1.98643e-06 -1.88534e-07 0)
(2.05472e-06 -1.83537e-07 0)
(2.12287e-06 -1.79097e-07 0)
(2.19054e-06 -1.75127e-07 0)
(2.25801e-06 -1.71249e-07 0)
(2.32523e-06 -1.67301e-07 0)
(2.39232e-06 -1.63081e-07 0)
(2.4593e-06 -1.58426e-07 0)
(2.52622e-06 -1.53187e-07 0)
(2.59307e-06 -1.4723e-07 0)
(2.65982e-06 -1.40414e-07 0)
(2.72645e-06 -1.32594e-07 0)
(2.79291e-06 -1.23606e-07 0)
(2.85908e-06 -1.13273e-07 0)
(2.92501e-06 -1.01382e-07 0)
(2.99041e-06 -8.77094e-08 0)
(3.05551e-06 -7.19005e-08 0)
(3.11963e-06 -5.37816e-08 0)
(1.72852e-06 -2.56667e-07 0)
(1.80602e-06 -2.44932e-07 0)
(1.88368e-06 -2.34715e-07 0)
(1.95956e-06 -2.26625e-07 0)
(2.03468e-06 -2.19577e-07 0)
(2.10873e-06 -2.13352e-07 0)
(2.18203e-06 -2.07524e-07 0)
(2.25457e-06 -2.01844e-07 0)
(2.32654e-06 -1.96058e-07 0)
(2.39803e-06 -1.89939e-07 0)
(2.46913e-06 -1.83299e-07 0)
(2.53983e-06 -1.75964e-07 0)
(2.61018e-06 -1.67755e-07 0)
(2.68021e-06 -1.58493e-07 0)
(2.7499e-06 -1.47974e-07 0)
(2.81918e-06 -1.35988e-07 0)
(2.88813e-06 -1.22269e-07 0)
(2.95649e-06 -1.06548e-07 0)
(3.02451e-06 -8.84014e-08 0)
(3.09162e-06 -6.76285e-08 0)
(1.60072e-06 -3.18015e-07 0)
(1.68751e-06 -3.01295e-07 0)
(1.77403e-06 -2.86779e-07 0)
(1.85806e-06 -2.74845e-07 0)
(1.94055e-06 -2.64587e-07 0)
(2.02135e-06 -2.55549e-07 0)
(2.10076e-06 -2.47298e-07 0)
(2.17891e-06 -2.39479e-07 0)
(2.25603e-06 -2.31775e-07 0)
(2.33227e-06 -2.23904e-07 0)
(2.40775e-06 -2.15628e-07 0)
(2.48253e-06 -2.0673e-07 0)
(2.55669e-06 -1.96991e-07 0)
(2.63032e-06 -1.8619e-07 0)
(2.7034e-06 -1.7408e-07 0)
(2.77595e-06 -1.60406e-07 0)
(2.84806e-06 -1.44853e-07 0)
(2.91955e-06 -1.27099e-07 0)
(2.99069e-06 -1.0667e-07 0)
(3.06099e-06 -8.33478e-08 0)
(1.46701e-06 -3.86169e-07 0)
(1.56436e-06 -3.63052e-07 0)
(1.66005e-06 -3.43417e-07 0)
(1.75267e-06 -3.26781e-07 0)
(1.84278e-06 -3.12602e-07 0)
(1.93054e-06 -3.00206e-07 0)
(2.01626e-06 -2.89107e-07 0)
(2.10018e-06 -2.78837e-07 0)
(2.18258e-06 -2.68991e-07 0)
(2.26368e-06 -2.59215e-07 0)
(2.34366e-06 -2.49205e-07 0)
(2.4226e-06 -2.3869e-07 0)
(2.50065e-06 -2.27402e-07 0)
(2.57793e-06 -2.1507e-07 0)
(2.65445e-06 -2.014e-07 0)
(2.73032e-06 -1.86094e-07 0)
(2.80562e-06 -1.68787e-07 0)
(2.88027e-06 -1.49116e-07 0)
(2.95455e-06 -1.2656e-07 0)
(3.02813e-06 -1.00864e-07 0)
(1.36357e-06 -4.53174e-07 0)
(1.47115e-06 -4.23566e-07 0)
(1.57346e-06 -3.99695e-07 0)
(1.67177e-06 -3.79199e-07 0)
(1.76685e-06 -3.61535e-07 0)
(1.85914e-06 -3.45994e-07 0)
(1.94903e-06 -3.32038e-07 0)
(2.03681e-06 -3.1917e-07 0)
(2.12278e-06 -3.06957e-07 0)
(2.20717e-06 -2.95015e-07 0)
(2.29017e-06 -2.83005e-07 0)
(2.3719e-06 -2.70619e-07 0)
(2.45254e-06 -2.57561e-07 0)
(2.53222e-06 -2.43527e-07 0)
(2.61098e-06 -2.28193e-07 0)
(2.68899e-06 -2.11235e-07 0)
(2.76632e-06 -1.92268e-07 0)
(2.84296e-06 -1.70921e-07 0)
(2.9192e-06 -1.46666e-07 0)
(2.99485e-06 -1.19213e-07 0)
(1.30625e-06 -5.07523e-07 0)
(1.41443e-06 -4.76388e-07 0)
(1.5182e-06 -4.50028e-07 0)
(1.61841e-06 -4.27015e-07 0)
(1.71545e-06 -4.06833e-07 0)
(1.80969e-06 -3.8885e-07 0)
(1.90145e-06 -3.72533e-07 0)
(1.99102e-06 -3.57404e-07 0)
(2.07865e-06 -3.43043e-07 0)
(2.16458e-06 -3.29067e-07 0)
(2.24899e-06 -3.15131e-07 0)
(2.33198e-06 -3.00921e-07 0)
(2.41378e-06 -2.86132e-07 0)
(2.4945e-06 -2.70453e-07 0)
(2.57421e-06 -2.53556e-07 0)
(2.65309e-06 -2.35119e-07 0)
(2.73123e-06 -2.14766e-07 0)
(2.80866e-06 -1.92146e-07 0)
(2.88565e-06 -1.66744e-07 0)
(2.96209e-06 -1.3824e-07 0)
(1.25903e-06 -5.59104e-07 0)
(1.36577e-06 -5.27339e-07 0)
(1.46942e-06 -4.99499e-07 0)
(1.57008e-06 -4.74604e-07 0)
(1.66798e-06 -4.52344e-07 0)
(1.76326e-06 -4.32218e-07 0)
(1.85618e-06 -4.13745e-07 0)
(1.94693e-06 -3.96497e-07 0)
(2.03573e-06 -3.80081e-07 0)
(2.12279e-06 -3.6413e-07 0)
(2.20825e-06 -3.48302e-07 0)
(2.29223e-06 -3.32284e-07 0)
(2.37495e-06 -3.15776e-07 0)
(2.45652e-06 -2.98467e-07 0)
(2.53702e-06 -2.80034e-07 0)
(2.61664e-06 -2.60167e-07 0)
(2.69547e-06 -2.3851e-07 0)
(2.7736e-06 -2.14726e-07 0)
(2.85124e-06 -1.88303e-07 0)
(2.92838e-06 -1.58912e-07 0)
(1.21808e-06 -6.08476e-07 0)
(1.32303e-06 -5.76465e-07 0)
(1.4258e-06 -5.47644e-07 0)
(1.5261e-06 -5.2132e-07 0)
(1.62408e-06 -4.97344e-07 0)
(1.71975e-06 -4.75348e-07 0)
(1.81324e-06 -4.54938e-07 0)
(1.90465e-06 -4.35744e-07 0)
(1.99418e-06 -4.17407e-07 0)
(2.082e-06 -3.99587e-07 0)
(2.16821e-06 -3.81955e-07 0)
(2.25291e-06 -3.64207e-07 0)
(2.33633e-06 -3.46056e-07 0)
(2.41858e-06 -3.27197e-07 0)
(2.49972e-06 -3.07321e-07 0)
(2.57996e-06 -2.86131e-07 0)
(2.65938e-06 -2.63291e-07 0)
(2.7381e-06 -2.38471e-07 0)
(2.81632e-06 -2.1117e-07 0)
(2.89408e-06 -1.81116e-07 0)
(1.18223e-06 -6.55742e-07 0)
(1.28519e-06 -6.237e-07 0)
(1.38662e-06 -5.9427e-07 0)
(1.48605e-06 -5.66912e-07 0)
(1.58357e-06 -5.41581e-07 0)
(1.67908e-06 -5.18022e-07 0)
(1.77265e-06 -4.9593e-07 0)
(1.8643e-06 -4.74994e-07 0)
(1.95417e-06 -4.54901e-07 0)
(2.04241e-06 -4.35344e-07 0)
(2.12908e-06 -4.1602e-07 0)
(2.21427e-06 -3.96642e-07 0)
(2.29819e-06 -3.76942e-07 0)
(2.38093e-06 -3.56629e-07 0)
(2.46258e-06 -3.35408e-07 0)
(2.54332e-06 -3.12997e-07 0)
(2.62323e-06 -2.89077e-07 0)
(2.70245e-06 -2.63326e-07 0)
(2.78118e-06 -2.35289e-07 0)
(2.85951e-06 -2.04803e-07 0)
(1.15045e-06 -7.00999e-07 0)
(1.25133e-06 -6.69114e-07 0)
(1.35119e-06 -6.39313e-07 0)
(1.44943e-06 -6.112e-07 0)
(1.54611e-06 -5.84799e-07 0)
(1.64108e-06 -5.59946e-07 0)
(1.73436e-06 -5.36417e-07 0)
(1.82588e-06 -5.13953e-07 0)
(1.91577e-06 -4.92287e-07 0)
(2.00414e-06 -4.71155e-07 0)
(2.09102e-06 -4.50279e-07 0)
(2.17647e-06 -4.29399e-07 0)
(2.26072e-06 -4.08271e-07 0)
(2.34379e-06 -3.86621e-07 0)
(2.42581e-06 -3.64168e-07 0)
(2.50694e-06 -3.40642e-07 0)
(2.58725e-06 -3.15745e-07 0)
(2.6669e-06 -2.89182e-07 0)
(2.74607e-06 -2.60581e-07 0)
(2.82489e-06 -2.29851e-07 0)
(1.12201e-06 -7.44357e-07 0)
(1.2208e-06 -7.1275e-07 0)
(1.31895e-06 -6.82758e-07 0)
(1.41577e-06 -6.5412e-07 0)
(1.51135e-06 -6.26904e-07 0)
(1.60551e-06 -6.01009e-07 0)
(1.69819e-06 -5.76275e-07 0)
(1.78931e-06 -5.52495e-07 0)
(1.87896e-06 -5.29446e-07 0)
(1.96722e-06 -5.06909e-07 0)
(2.0541e-06 -4.84636e-07 0)
(2.13964e-06 -4.62392e-07 0)
(2.22404e-06 -4.39959e-07 0)
(2.30732e-06 -4.17083e-07 0)
(2.3896e-06 -3.93501e-07 0)
(2.47101e-06 -3.68957e-07 0)
(2.55163e-06 -3.43183e-07 0)
(2.63163e-06 -3.15933e-07 0)
(2.71117e-06 -2.86927e-07 0)
(2.79042e-06 -2.56034e-07 0)
(1.09629e-06 -7.85907e-07 0)
(1.19302e-06 -7.54655e-07 0)
(1.28939e-06 -7.24616e-07 0)
(1.38467e-06 -6.95633e-07 0)
(1.47897e-06 -6.67806e-07 0)
(1.57211e-06 -6.41075e-07 0)
(1.66399e-06 -6.15336e-07 0)
(1.75449e-06 -5.90431e-07 0)
(1.8437e-06 -5.66179e-07 0)
(1.93166e-06 -5.42407e-07 0)
(2.01836e-06 -5.18897e-07 0)
(2.10384e-06 -4.9544e-07 0)
(2.18826e-06 -4.71836e-07 0)
(2.27162e-06 -4.4785e-07 0)
(2.35404e-06 -4.23247e-07 0)
(2.43564e-06 -3.97794e-07 0)
(2.5165e-06 -3.71264e-07 0)
(2.59678e-06 -3.43461e-07 0)
(2.67663e-06 -3.14155e-07 0)
(2.75625e-06 -2.83148e-07 0)
(1.07276e-06 -8.25765e-07 0)
(1.16748e-06 -7.94916e-07 0)
(1.26204e-06 -7.64932e-07 0)
(1.35571e-06 -7.3574e-07 0)
(1.44864e-06 -7.07457e-07 0)
(1.54061e-06 -6.80056e-07 0)
(1.63154e-06 -6.53484e-07 0)
(1.72128e-06 -6.27629e-07 0)
(1.80988e-06 -6.02347e-07 0)
(1.89741e-06 -5.77511e-07 0)
(1.98379e-06 -5.52929e-07 0)
(2.06907e-06 -5.28416e-07 0)
(2.15339e-06 -5.03785e-07 0)
(2.23674e-06 -4.7882e-07 0)
(2.31921e-06 -4.53316e-07 0)
(2.40093e-06 -4.27078e-07 0)
(2.48195e-06 -3.99921e-07 0)
(2.56245e-06 -3.7168e-07 0)
(2.64256e-06 -3.42123e-07 0)
(2.72247e-06 -3.11121e-07 0)
(1.05095e-06 -8.64068e-07 0)
(1.14373e-06 -8.3365e-07 0)
(1.23648e-06 -8.03785e-07 0)
(1.32853e-06 -7.74474e-07 0)
(1.42002e-06 -7.45852e-07 0)
(1.51075e-06 -7.17921e-07 0)
(1.60062e-06 -6.90675e-07 0)
(1.68948e-06 -6.64039e-07 0)
(1.77738e-06 -6.37898e-07 0)
(1.86436e-06 -6.12166e-07 0)
(1.95032e-06 -5.86672e-07 0)
(2.03531e-06 -5.61252e-07 0)
(2.11944e-06 -5.35732e-07 0)
(2.20268e-06 -5.09917e-07 0)
(2.28513e-06 -4.83638e-07 0)
(2.36689e-06 -4.56737e-07 0)
(2.44803e-06 -4.29061e-07 0)
(2.52869e-06 -4.00453e-07 0)
(2.609e-06 -3.70696e-07 0)
(2.68916e-06 -3.39831e-07 0)
(1.03046e-06 -9.00965e-07 0)
(1.12136e-06 -8.70979e-07 0)
(1.21233e-06 -8.41268e-07 0)
(1.30277e-06 -8.11905e-07 0)
(1.39279e-06 -7.83045e-07 0)
(1.48224e-06 -7.54713e-07 0)
(1.57101e-06 -7.26938e-07 0)
(1.65893e-06 -6.99678e-07 0)
(1.74605e-06 -6.72838e-07 0)
(1.8324e-06 -6.46353e-07 0)
(1.91787e-06 -6.2008e-07 0)
(2.0025e-06 -5.93876e-07 0)
(2.08636e-06 -5.67586e-07 0)
(2.16943e-06 -5.41043e-07 0)
(2.25179e-06 -5.14107e-07 0)
(2.33355e-06 -4.8665e-07 0)
(2.41474e-06 -4.58532e-07 0)
(2.49552e-06 -4.29605e-07 0)
(2.57599e-06 -3.99753e-07 0)
(2.65634e-06 -3.69041e-07 0)
(1.0109e-06 -9.36575e-07 0)
(1.1e-06 -9.06988e-07 0)
(1.18924e-06 -8.77458e-07 0)
(1.27809e-06 -8.48102e-07 0)
(1.36666e-06 -8.1909e-07 0)
(1.45483e-06 -7.90464e-07 0)
(1.54246e-06 -7.62279e-07 0)
(1.62941e-06 -7.34515e-07 0)
(1.71572e-06 -7.07111e-07 0)
(1.8014e-06 -6.8e-07 0)
(1.88633e-06 -6.5307e-07 0)
(1.97053e-06 -6.26203e-07 0)
(2.05407e-06 -5.99267e-07 0)
(2.13692e-06 -5.72122e-07 0)
(2.21916e-06 -5.44652e-07 0)
(2.30087e-06 -5.16739e-07 0)
(2.38208e-06 -4.88251e-07 0)
(2.46294e-06 -4.59085e-07 0)
(2.54352e-06 -4.2925e-07 0)
(2.62403e-06 -3.98655e-07 0)
(9.91919e-07 -9.70985e-07 0)
(1.07929e-06 -9.4176e-07 0)
(1.16687e-06 -9.12438e-07 0)
(1.25418e-06 -8.83137e-07 0)
(1.34134e-06 -8.54037e-07 0)
(1.42824e-06 -8.25197e-07 0)
(1.51475e-06 -7.96702e-07 0)
(1.60074e-06 -7.68537e-07 0)
(1.68622e-06 -7.40698e-07 0)
(1.7712e-06 -7.13097e-07 0)
(1.85555e-06 -6.85644e-07 0)
(1.93929e-06 -6.58244e-07 0)
(2.02248e-06 -6.30787e-07 0)
(2.10509e-06 -6.03159e-07 0)
(2.18717e-06 -5.75254e-07 0)
(2.26881e-06 -5.46963e-07 0)
(2.35001e-06 -5.18184e-07 0)
(2.43092e-06 -4.88885e-07 0)
(2.51159e-06 -4.59074e-07 0)
(2.59221e-06 -4.28653e-07 0)
(9.73194e-07 -1.00429e-06 0)
(1.05892e-06 -9.75435e-07 0)
(1.1449e-06 -9.46321e-07 0)
(1.23074e-06 -9.171e-07 0)
(1.31655e-06 -8.87965e-07 0)
(1.40223e-06 -8.58989e-07 0)
(1.48766e-06 -8.30291e-07 0)
(1.57269e-06 -8.01838e-07 0)
(1.65735e-06 -7.73665e-07 0)
(1.74163e-06 -7.45683e-07 0)
(1.8254e-06 -7.17811e-07 0)
(1.90867e-06 -6.89979e-07 0)
(1.99151e-06 -6.62102e-07 0)
(2.07386e-06 -6.34081e-07 0)
(2.15577e-06 -6.05818e-07 0)
(2.23731e-06 -5.77222e-07 0)
(2.31848e-06 -5.48241e-07 0)
(2.39941e-06 -5.18887e-07 0)
(2.48016e-06 -4.89053e-07 0)
(2.56086e-06 -4.58844e-07 0)
(9.54411e-07 -1.03665e-06 0)
(1.03857e-06 -1.00812e-06 0)
(1.12306e-06 -9.79209e-07 0)
(1.20751e-06 -9.50093e-07 0)
(1.29204e-06 -9.20981e-07 0)
(1.37656e-06 -8.91954e-07 0)
(1.46095e-06 -8.63125e-07 0)
(1.54507e-06 -8.3447e-07 0)
(1.62893e-06 -8.06017e-07 0)
(1.71253e-06 -7.7773e-07 0)
(1.79574e-06 -7.49547e-07 0)
(1.87856e-06 -7.21402e-07 0)
(1.96105e-06 -6.93214e-07 0)
(2.04314e-06 -6.64893e-07 0)
(2.12487e-06 -6.36355e-07 0)
(2.2063e-06 -6.07541e-07 0)
(2.28744e-06 -5.7844e-07 0)
(2.3684e-06 -5.49032e-07 0)
(2.44919e-06 -5.19232e-07 0)
(2.52993e-06 -4.89163e-07 0)
(9.35295e-07 -1.06814e-06 0)
(1.01798e-06 -1.03991e-06 0)
(1.10104e-06 -1.01116e-06 0)
(1.1842e-06 -9.82188e-07 0)
(1.26755e-06 -9.53146e-07 0)
(1.351e-06 -9.24129e-07 0)
(1.43443e-06 -8.95221e-07 0)
(1.51769e-06 -8.66459e-07 0)
(1.6008e-06 -8.37833e-07 0)
(1.68377e-06 -8.09328e-07 0)
(1.76646e-06 -7.80915e-07 0)
(1.84886e-06 -7.52537e-07 0)
(1.93101e-06 -7.24114e-07 0)
(2.01283e-06 -6.95566e-07 0)
(2.09439e-06 -6.66832e-07 0)
(2.17574e-06 -6.37887e-07 0)
(2.25686e-06 -6.08713e-07 0)
(2.33782e-06 -5.79216e-07 0)
(2.41862e-06 -5.49516e-07 0)
(2.49935e-06 -5.19584e-07 0)
(9.15569e-07 -1.09877e-06 0)
(9.96805e-07 -1.07078e-06 0)
(1.07851e-06 -1.04229e-06 0)
(1.16056e-06 -1.01352e-06 0)
(1.24282e-06 -9.84572e-07 0)
(1.32531e-06 -9.55604e-07 0)
(1.40786e-06 -9.26682e-07 0)
(1.49035e-06 -8.97856e-07 0)
(1.5728e-06 -8.69131e-07 0)
(1.65522e-06 -8.40502e-07 0)
(1.73745e-06 -8.11945e-07 0)
(1.81945e-06 -7.83404e-07 0)
(1.90128e-06 -7.54811e-07 0)
(1.98287e-06 -7.26107e-07 0)
(2.0643e-06 -6.97257e-07 0)
(2.14558e-06 -6.68233e-07 0)
(2.22664e-06 -6.38985e-07 0)
(2.30752e-06 -6.09459e-07 0)
(2.38833e-06 -5.79794e-07 0)
(2.4692e-06 -5.49998e-07 0)
(8.94763e-07 -1.12855e-06 0)
(9.74768e-07 -1.10086e-06 0)
(1.05537e-06 -1.07267e-06 0)
(1.13632e-06 -1.04409e-06 0)
(1.21763e-06 -1.01532e-06 0)
(1.29925e-06 -9.86444e-07 0)
(1.38105e-06 -9.57566e-07 0)
(1.4629e-06 -9.28739e-07 0)
(1.54483e-06 -8.99988e-07 0)
(1.62678e-06 -8.7131e-07 0)
(1.70857e-06 -8.42676e-07 0)
(1.79021e-06 -8.1404e-07 0)
(1.8718e-06 -7.85351e-07 0)
(1.95327e-06 -7.56564e-07 0)
(2.03456e-06 -7.27652e-07 0)
(2.11565e-06 -6.98568e-07 0)
(2.19662e-06 -6.69242e-07 0)
(2.27759e-06 -6.39774e-07 0)
(2.35839e-06 -6.10115e-07 0)
(2.43911e-06 -5.80401e-07 0)
(8.72597e-07 -1.15784e-06 0)
(9.51468e-07 -1.13044e-06 0)
(1.03105e-06 -1.10248e-06 0)
(1.11109e-06 -1.07413e-06 0)
(1.1916e-06 -1.04553e-06 0)
(1.27255e-06 -1.0168e-06 0)
(1.35381e-06 -9.8802e-07 0)
(1.43522e-06 -9.59248e-07 0)
(1.5167e-06 -9.30518e-07 0)
(1.59823e-06 -9.01835e-07 0)
(1.67972e-06 -8.73174e-07 0)
(1.76121e-06 -8.44496e-07 0)
(1.84263e-06 -8.15762e-07 0)
(1.92383e-06 -7.8694e-07 0)
(2.00495e-06 -7.57987e-07 0)
(2.08604e-06 -7.28855e-07 0)
(2.16696e-06 -6.99509e-07 0)
(2.24781e-06 -6.70018e-07 0)
(2.32861e-06 -6.40386e-07 0)
(2.40934e-06 -6.1073e-07 0)
(8.48751e-07 -1.18628e-06 0)
(9.26616e-07 -1.15927e-06 0)
(1.00532e-06 -1.13167e-06 0)
(1.08462e-06 -1.10361e-06 0)
(1.1646e-06 -1.07526e-06 0)
(1.24517e-06 -1.04673e-06 0)
(1.32606e-06 -1.01811e-06 0)
(1.40707e-06 -9.89459e-07 0)
(1.48827e-06 -9.60809e-07 0)
(1.56968e-06 -9.32168e-07 0)
(1.65103e-06 -9.03524e-07 0)
(1.73227e-06 -8.74846e-07 0)
(1.81351e-06 -8.46103e-07 0)
(1.89464e-06 -8.17268e-07 0)
(1.97563e-06 -7.88285e-07 0)
(2.05659e-06 -7.59123e-07 0)
(2.13745e-06 -7.29839e-07 0)
(2.21825e-06 -7.00261e-07 0)
(2.29901e-06 -6.70624e-07 0)
(2.37961e-06 -6.40898e-07 0)
(5.84338e-08 -9.81504e-07 0)
(1.75884e-07 -9.67528e-07 0)
(2.95093e-07 -9.39894e-07 0)
(4.17037e-07 -8.99983e-07 0)
(5.425e-07 -8.49131e-07 0)
(6.71969e-07 -7.89391e-07 0)
(8.05608e-07 -7.22879e-07 0)
(9.43252e-07 -6.51861e-07 0)
(1.08455e-06 -5.78636e-07 0)
(1.22893e-06 -5.05019e-07 0)
(5.7358e-08 -9.98522e-07 0)
(1.72549e-07 -9.85811e-07 0)
(2.89143e-07 -9.6059e-07 0)
(4.07913e-07 -9.24145e-07 0)
(5.29485e-07 -8.77545e-07 0)
(6.54224e-07 -8.22552e-07 0)
(7.82199e-07 -7.60996e-07 0)
(9.1318e-07 -6.94832e-07 0)
(1.04646e-06 -6.26243e-07 0)
(1.1815e-06 -5.56706e-07 0)
(5.63669e-08 -1.01619e-06 0)
(1.69468e-07 -1.00465e-06 0)
(2.83628e-07 -9.81634e-07 0)
(3.99422e-07 -9.48375e-07 0)
(5.17325e-07 -9.05749e-07 0)
(6.37587e-07 -8.55254e-07 0)
(7.60229e-07 -7.98494e-07 0)
(8.85119e-07 -7.37087e-07 0)
(1.01168e-06 -6.72952e-07 0)
(1.13964e-06 -6.0691e-07 0)
(5.54326e-08 -1.03451e-06 0)
(1.66588e-07 -1.02396e-06 0)
(2.78546e-07 -1.00283e-06 0)
(3.91722e-07 -9.72279e-07 0)
(5.06469e-07 -9.33058e-07 0)
(6.2293e-07 -8.86422e-07 0)
(7.41074e-07 -8.33843e-07 0)
(8.60747e-07 -7.76715e-07 0)
(9.81509e-07 -7.16808e-07 0)
(1.10309e-06 -6.54685e-07 0)
(5.4532e-08 -1.05342e-06 0)
(1.638e-07 -1.04375e-06 0)
(2.73669e-07 -1.02431e-06 0)
(3.84416e-07 -9.96159e-07 0)
(4.96285e-07 -9.60001e-07 0)
(6.09361e-07 -9.16871e-07 0)
(7.236e-07 -8.68114e-07 0)
(8.3886e-07 -8.14915e-07 0)
(9.54854e-07 -7.58834e-07 0)
(1.07111e-06 -7.00391e-07 0)
(5.36619e-08 -1.07287e-06 0)
(1.61112e-07 -1.06395e-06 0)
(2.69008e-07 -1.04598e-06 0)
(3.7752e-07 -1.01991e-06 0)
(4.86806e-07 -9.86421e-07 0)
(5.96906e-07 -9.46384e-07 0)
(7.07755e-07 -9.01021e-07 0)
(8.19193e-07 -8.51399e-07 0)
(9.31086e-07 -7.98886e-07 0)
(1.0428e-06 -7.44044e-07 0)
(5.27896e-08 -1.09282e-06 0)
(1.58462e-07 -1.08455e-06 0)
(2.64446e-07 -1.06791e-06 0)
(3.70845e-07 -1.04368e-06 0)
(4.77761e-07 -1.01255e-06 0)
(5.85193e-07 -9.75289e-07 0)
(6.9309e-07 -9.32973e-07 0)
(8.01244e-07 -8.86572e-07 0)
(9.09637e-07 -8.37292e-07 0)
(1.01751e-06 -7.85782e-07 0)
(5.19207e-08 -1.1132e-06 0)
(1.55841e-07 -1.10548e-06 0)
(2.59965e-07 -1.09002e-06 0)
(3.64356e-07 -1.0674e-06 0)
(4.69087e-07 -1.03835e-06 0)
(5.74103e-07 -1.00356e-06 0)
(6.79374e-07 -9.63977e-07 0)
(7.84662e-07 -9.20479e-07 0)
(8.90025e-07 -8.74163e-07 0)
(9.94659e-07 -8.25736e-07 0)
(5.10621e-08 -1.13398e-06 0)
(1.53227e-07 -1.12672e-06 0)
(2.55513e-07 -1.11231e-06 0)
(3.57968e-07 -1.09113e-06 0)
(4.60644e-07 -1.06393e-06 0)
(5.63455e-07 -1.03136e-06 0)
(6.66371e-07 -9.94217e-07 0)
(7.69142e-07 -9.53323e-07 0)
(8.71867e-07 -9.097e-07 0)
(9.73738e-07 -8.64083e-07 0)
(5.02002e-08 -1.1551e-06 0)
(1.50593e-07 -1.14824e-06 0)
(2.51057e-07 -1.13474e-06 0)
(3.51635e-07 -1.11487e-06 0)
(4.5235e-07 -1.08933e-06 0)
(5.53119e-07 -1.05871e-06 0)
(6.53897e-07 -1.02376e-06 0)
(7.54423e-07 -9.85235e-07 0)
(8.54818e-07 -9.44064e-07 0)
(9.54309e-07 -9.00989e-07 0)
(4.93135e-08 -1.17649e-06 0)
(1.47912e-07 -1.16999e-06 0)
(2.46561e-07 -1.15729e-06 0)
(3.45298e-07 -1.13861e-06 0)
(4.44121e-07 -1.11456e-06 0)
(5.42965e-07 -1.08569e-06 0)
(6.41768e-07 -1.05271e-06 0)
(7.40262e-07 -1.01634e-06 0)
(8.3857e-07 -9.77373e-07 0)
(9.35985e-07 -9.36576e-07 0)
(4.84002e-08 -1.19808e-06 0)
(1.45184e-07 -1.19191e-06 0)
(2.42012e-07 -1.17993e-06 0)
(3.38915e-07 -1.16232e-06 0)
(4.35887e-07 -1.13961e-06 0)
(5.32876e-07 -1.11231e-06 0)
(6.29813e-07 -1.08111e-06 0)
(7.2643e-07 -1.04669e-06 0)
(8.2284e-07 -1.00969e-06 0)
(9.18413e-07 -9.70948e-07 0)
(4.74677e-08 -1.2198e-06 0)
(1.42404e-07 -1.21394e-06 0)
(2.37383e-07 -1.20262e-06 0)
(3.32434e-07 -1.18597e-06 0)
(4.27568e-07 -1.16446e-06 0)
(5.22736e-07 -1.1386e-06 0)
(6.17871e-07 -1.10901e-06 0)
(7.12714e-07 -1.07632e-06 0)
(8.07363e-07 -1.04111e-06 0)
(9.01264e-07 -1.00425e-06 0)
(4.65148e-08 -1.24157e-06 0)
(1.3955e-07 -1.23603e-06 0)
(2.3263e-07 -1.22529e-06 0)
(3.25794e-07 -1.20951e-06 0)
(4.19075e-07 -1.1891e-06 0)
(5.12426e-07 -1.16455e-06 0)
(6.05783e-07 -1.13643e-06 0)
(6.98912e-07 -1.1053e-06 0)
(7.91888e-07 -1.07177e-06 0)
(8.84241e-07 -1.03658e-06 0)
(4.55266e-08 -1.26336e-06 0)
(1.36581e-07 -1.25811e-06 0)
(2.27696e-07 -1.2479e-06 0)
(3.1892e-07 -1.23293e-06 0)
(4.10306e-07 -1.21355e-06 0)
(5.0181e-07 -1.19019e-06 0)
(5.93383e-07 -1.16338e-06 0)
(6.84818e-07 -1.13368e-06 0)
(7.76175e-07 -1.10169e-06 0)
(8.67065e-07 -1.06801e-06 0)
(4.44856e-08 -1.28505e-06 0)
(1.3346e-07 -1.2801e-06 0)
(2.22522e-07 -1.27039e-06 0)
(3.1173e-07 -1.25616e-06 0)
(4.01149e-07 -1.23769e-06 0)
(4.90752e-07 -1.21543e-06 0)
(5.80505e-07 -1.18983e-06 0)
(6.70238e-07 -1.16149e-06 0)
(7.6e-07 -1.13089e-06 0)
(8.49477e-07 -1.09863e-06 0)
(4.33774e-08 -1.30664e-06 0)
(1.3015e-07 -1.30197e-06 0)
(2.17043e-07 -1.29271e-06 0)
(3.04127e-07 -1.27915e-06 0)
(3.91479e-07 -1.26156e-06 0)
(4.79094e-07 -1.24032e-06 0)
(5.6696e-07 -1.21588e-06 0)
(6.54949e-07 -1.18881e-06 0)
(7.4311e-07 -1.15945e-06 0)
(8.31171e-07 -1.12851e-06 0)
(4.21929e-08 -1.3279e-06 0)
(1.26617e-07 -1.3235e-06 0)
(2.11198e-07 -1.31467e-06 0)
(2.96015e-07 -1.30174e-06 0)
(3.81166e-07 -1.28496e-06 0)
(4.66678e-07 -1.26468e-06 0)
(5.52557e-07 -1.24134e-06 0)
(6.38725e-07 -1.21544e-06 0)
(7.25217e-07 -1.18731e-06 0)
(8.11841e-07 -1.15757e-06 0)
(4.09148e-08 -1.34894e-06 0)
(1.22802e-07 -1.34478e-06 0)
(2.04879e-07 -1.33639e-06 0)
(2.87245e-07 -1.32407e-06 0)
(3.70016e-07 -1.30806e-06 0)
(4.53266e-07 -1.28873e-06 0)
(5.37024e-07 -1.26647e-06 0)
(6.21242e-07 -1.24165e-06 0)
(7.05956e-07 -1.21471e-06 0)
(7.91068e-07 -1.18611e-06 0)
(3.95351e-08 -1.3692e-06 0)
(1.18678e-07 -1.36524e-06 0)
(1.98033e-07 -1.3573e-06 0)
(2.77738e-07 -1.34558e-06 0)
(3.57947e-07 -1.33034e-06 0)
(4.38757e-07 -1.31195e-06 0)
(5.20212e-07 -1.29072e-06 0)
(6.0229e-07 -1.26702e-06 0)
(6.85085e-07 -1.24122e-06 0)
(7.68599e-07 -1.21377e-06 0)
)


// ************************************************************************* //
