/*--------------------------------*- C++ -*----------------------------------*\
| =========                 |                                                 |
| \\      /  F ield         | foam-extend: Open Source CFD                    |
|  \\    /   O peration     | Version:     4.1                                |
|   \\  /    A nd           | Web:         http://www.foam-extend.org         |
|    \\/     M anipulation  |                                                 |
\*---------------------------------------------------------------------------*/
FoamFile
{
    version     2.0;
    format      ascii;
    class       vectorField;
    location    "3";
    object      solidsCellD_iteration7;
}
// * * * * * * * * * * * * * * * * * * * * * * * * * * * * * * * * * * * * * //


1000
(
(1.46536e-06 -5.62862e-07 0)
(1.38934e-06 -5.27381e-07 0)
(1.34204e-06 -5.06405e-07 0)
(1.31615e-06 -4.98534e-07 0)
(1.30513e-06 -4.98327e-07 0)
(1.30505e-06 -5.03985e-07 0)
(1.31302e-06 -5.13535e-07 0)
(1.32694e-06 -5.26108e-07 0)
(1.34556e-06 -5.40593e-07 0)
(1.36632e-06 -5.56726e-07 0)
(1.326e-06 -6.15002e-07 0)
(1.24499e-06 -5.91851e-07 0)
(1.19438e-06 -5.7877e-07 0)
(1.16598e-06 -5.76338e-07 0)
(1.15283e-06 -5.79807e-07 0)
(1.15067e-06 -5.88096e-07 0)
(1.15654e-06 -5.99532e-07 0)
(1.16824e-06 -6.13498e-07 0)
(1.1844e-06 -6.29006e-07 0)
(1.20287e-06 -6.45939e-07 0)
(1.18083e-06 -6.64373e-07 0)
(1.098e-06 -6.54986e-07 0)
(1.04613e-06 -6.50658e-07 0)
(1.0165e-06 -6.54116e-07 0)
(1.00211e-06 -6.61449e-07 0)
(9.98482e-07 -6.724e-07 0)
(1.0027e-06 -6.85685e-07 0)
(1.01263e-06 -7.00885e-07 0)
(1.02683e-06 -7.17293e-07 0)
(1.04346e-06 -7.34689e-07 0)
(1.031e-06 -7.10115e-07 0)
(9.49903e-07 -7.1511e-07 0)
(8.99009e-07 -7.19904e-07 0)
(8.69514e-07 -7.2943e-07 0)
(8.54726e-07 -7.40734e-07 0)
(8.50226e-07 -7.54367e-07 0)
(8.53137e-07 -7.69443e-07 0)
(8.61502e-07 -7.85833e-07 0)
(8.7389e-07 -8.03122e-07 0)
(8.88679e-07 -8.21063e-07 0)
(8.77621e-07 -7.51312e-07 0)
(8.01675e-07 -7.7052e-07 0)
(7.53925e-07 -7.84339e-07 0)
(7.26032e-07 -7.99838e-07 0)
(7.11755e-07 -8.14996e-07 0)
(7.06875e-07 -8.31233e-07 0)
(7.08796e-07 -8.48037e-07 0)
(7.15694e-07 -8.65591e-07 0)
(7.26319e-07 -8.83738e-07 0)
(7.39132e-07 -9.0229e-07 0)
(7.21326e-07 -7.87159e-07 0)
(6.53925e-07 -8.19629e-07 0)
(6.11536e-07 -8.4187e-07 0)
(5.86577e-07 -8.62959e-07 0)
(5.73584e-07 -8.81726e-07 0)
(5.68784e-07 -9.0038e-07 0)
(5.70017e-07 -9.1876e-07 0)
(5.75588e-07 -9.37403e-07 0)
(5.84408e-07 -9.56358e-07 0)
(5.95083e-07 -9.75541e-07 0)
(5.63001e-07 -8.16821e-07 0)
(5.07102e-07 -8.6092e-07 0)
(4.71932e-07 -8.90553e-07 0)
(4.51103e-07 -9.16527e-07 0)
(4.40141e-07 -9.38429e-07 0)
(4.35932e-07 -9.59199e-07 0)
(4.36694e-07 -9.78966e-07 0)
(4.40973e-07 -9.98586e-07 0)
(4.47896e-07 -1.01826e-06 0)
(4.56304e-07 -1.03803e-06 0)
(4.03177e-07 -8.39688e-07 0)
(3.61265e-07 -8.93129e-07 0)
(3.34918e-07 -9.28671e-07 0)
(3.19302e-07 -9.58525e-07 0)
(3.11022e-07 -9.82972e-07 0)
(3.07754e-07 -1.00544e-06 0)
(3.08165e-07 -1.02635e-06 0)
(3.11174e-07 -1.04676e-06 0)
(3.16151e-07 -1.06701e-06 0)
(3.22204e-07 -1.08727e-06 0)
(2.42325e-07 -8.55223e-07 0)
(2.1639e-07 -9.15173e-07 0)
(2.00105e-07 -9.54841e-07 0)
(1.90386e-07 -9.87464e-07 0)
(1.85182e-07 -1.01369e-06 0)
(1.83101e-07 -1.03732e-06 0)
(1.83323e-07 -1.05903e-06 0)
(1.8513e-07 -1.08004e-06 0)
(1.88113e-07 -1.10073e-06 0)
(1.91754e-07 -1.12136e-06 0)
(8.0935e-08 -8.63052e-07 0)
(7.21461e-08 -9.26375e-07 0)
(6.6583e-08 -9.68167e-07 0)
(6.32865e-08 -1.00219e-06 0)
(6.15502e-08 -1.02931e-06 0)
(6.08206e-08 -1.05357e-06 0)
(6.08416e-08 -1.07567e-06 0)
(6.14354e-08 -1.09697e-06 0)
(6.2444e-08 -1.11787e-06 0)
(6.36543e-08 -1.1387e-06 0)
(2.27407e-06 -2.56243e-08 0)
(2.29331e-06 -1.85755e-08 0)
(2.30642e-06 -1.41836e-08 0)
(2.32119e-06 -1.16798e-08 0)
(2.33792e-06 -1.03761e-08 0)
(2.35826e-06 -9.89447e-09 0)
(2.38222e-06 -9.9577e-09 0)
(2.40983e-06 -1.03518e-08 0)
(2.44109e-06 -1.1047e-08 0)
(2.47556e-06 -1.18603e-08 0)
(2.25755e-06 -7.69027e-08 0)
(2.27362e-06 -5.61716e-08 0)
(2.28475e-06 -4.32616e-08 0)
(2.29817e-06 -3.59705e-08 0)
(2.314e-06 -3.22254e-08 0)
(2.33367e-06 -3.0798e-08 0)
(2.35719e-06 -3.10261e-08 0)
(2.38444e-06 -3.23383e-08 0)
(2.41535e-06 -3.44232e-08 0)
(2.44951e-06 -3.67898e-08 0)
(2.22449e-06 -1.28589e-07 0)
(2.23452e-06 -9.5371e-08 0)
(2.24184e-06 -7.47152e-08 0)
(2.25273e-06 -6.29911e-08 0)
(2.26689e-06 -5.70443e-08 0)
(2.2854e-06 -5.49314e-08 0)
(2.308e-06 -5.5426e-08 0)
(2.33455e-06 -5.76289e-08 0)
(2.36481e-06 -6.1065e-08 0)
(2.39835e-06 -6.5008e-08 0)
(2.17548e-06 -1.80967e-07 0)
(2.17693e-06 -1.37063e-07 0)
(2.17878e-06 -1.09873e-07 0)
(2.18609e-06 -9.45318e-08 0)
(2.19782e-06 -8.67902e-08 0)
(2.21465e-06 -8.41555e-08 0)
(2.236e-06 -8.49763e-08 0)
(2.26158e-06 -8.81231e-08 0)
(2.29095e-06 -9.29302e-08 0)
(2.32368e-06 -9.84506e-08 0)
(2.1112e-06 -2.34165e-07 0)
(2.10209e-06 -1.82028e-07 0)
(2.09719e-06 -1.49813e-07 0)
(2.10002e-06 -1.31829e-07 0)
(2.10878e-06 -1.22877e-07 0)
(2.12351e-06 -1.20057e-07 0)
(2.1433e-06 -1.21394e-07 0)
(2.16763e-06 -1.25557e-07 0)
(2.19591e-06 -1.31699e-07 0)
(2.22767e-06 -1.38733e-07 0)
(2.03257e-06 -2.88235e-07 0)
(2.01147e-06 -2.30796e-07 0)
(1.99899e-06 -1.95356e-07 0)
(1.99678e-06 -1.75868e-07 0)
(2.00217e-06 -1.6643e-07 0)
(2.01451e-06 -1.63846e-07 0)
(2.03255e-06 -1.65888e-07 0)
(2.05547e-06 -1.71089e-07 0)
(2.08251e-06 -1.78513e-07 0)
(2.11319e-06 -1.87001e-07 0)
(1.94073e-06 -3.43074e-07 0)
(1.90694e-06 -2.83586e-07 0)
(1.88641e-06 -2.4696e-07 0)
(1.87889e-06 -2.27242e-07 0)
(1.88071e-06 -2.18071e-07 0)
(1.89052e-06 -2.16161e-07 0)
(1.90668e-06 -2.19112e-07 0)
(1.92809e-06 -2.25396e-07 0)
(1.9538e-06 -2.34074e-07 0)
(1.98338e-06 -2.43935e-07 0)
(1.83679e-06 -3.98402e-07 0)
(1.79042e-06 -3.4027e-07 0)
(1.76193e-06 -3.04591e-07 0)
(1.74909e-06 -2.85967e-07 0)
(1.74736e-06 -2.77862e-07 0)
(1.7546e-06 -2.77102e-07 0)
(1.76882e-06 -2.81204e-07 0)
(1.78869e-06 -2.88668e-07 0)
(1.81303e-06 -2.98576e-07 0)
(1.84146e-06 -3.0972e-07 0)
(1.72206e-06 -4.53853e-07 0)
(1.66398e-06 -4.00369e-07 0)
(1.62809e-06 -3.67757e-07 0)
(1.61024e-06 -3.51543e-07 0)
(1.60512e-06 -3.45319e-07 0)
(1.60981e-06 -3.46192e-07 0)
(1.62203e-06 -3.51722e-07 0)
(1.64026e-06 -3.60462e-07 0)
(1.66309e-06 -3.7159e-07 0)
(1.69023e-06 -3.83767e-07 0)
(1.59784e-06 -5.08891e-07 0)
(1.52968e-06 -4.63086e-07 0)
(1.48738e-06 -4.35471e-07 0)
(1.4651e-06 -4.22931e-07 0)
(1.45686e-06 -4.19385e-07 0)
(1.45916e-06 -4.22405e-07 0)
(1.46952e-06 -4.29751e-07 0)
(1.48613e-06 -4.40166e-07 0)
(1.50765e-06 -4.52797e-07 0)
(1.53299e-06 -4.66699e-07 0)
(2.51319e-06 -1.26141e-08 0)
(2.55411e-06 -1.28916e-08 0)
(2.5975e-06 -1.31581e-08 0)
(2.64321e-06 -1.33673e-08 0)
(2.69096e-06 -1.35109e-08 0)
(2.74064e-06 -1.35874e-08 0)
(2.79201e-06 -1.35806e-08 0)
(2.84485e-06 -1.35162e-08 0)
(2.89905e-06 -1.34045e-08 0)
(2.95449e-06 -1.32155e-08 0)
(3.011e-06 -1.29265e-08 0)
(3.06842e-06 -1.25379e-08 0)
(3.12661e-06 -1.2055e-08 0)
(3.18543e-06 -1.14803e-08 0)
(3.24477e-06 -1.08027e-08 0)
(3.30443e-06 -9.99841e-09 0)
(3.36433e-06 -9.03996e-09 0)
(3.42417e-06 -7.90429e-09 0)
(3.48397e-06 -6.57013e-09 0)
(3.54303e-06 -5.03783e-09 0)
(2.48828e-06 -3.89269e-08 0)
(2.53124e-06 -3.96208e-08 0)
(2.57647e-06 -4.02837e-08 0)
(2.62379e-06 -4.07898e-08 0)
(2.67302e-06 -4.10963e-08 0)
(2.72398e-06 -4.12368e-08 0)
(2.7765e-06 -4.11984e-08 0)
(2.83042e-06 -4.09941e-08 0)
(2.88563e-06 -4.05891e-08 0)
(2.94198e-06 -3.99312e-08 0)
(2.99932e-06 -3.9013e-08 0)
(3.05752e-06 -3.7846e-08 0)
(3.11646e-06 -3.64154e-08 0)
(3.176e-06 -3.46895e-08 0)
(3.23599e-06 -3.26247e-08 0)
(3.29628e-06 -3.01763e-08 0)
(3.35677e-06 -2.72863e-08 0)
(3.41717e-06 -2.38967e-08 0)
(3.47753e-06 -1.99349e-08 0)
(3.53714e-06 -1.53724e-08 0)
(2.43931e-06 -6.82227e-08 0)
(2.48633e-06 -6.88869e-08 0)
(2.53521e-06 -6.95198e-08 0)
(2.58567e-06 -7.00094e-08 0)
(2.63772e-06 -7.02574e-08 0)
(2.69123e-06 -7.03037e-08 0)
(2.7461e-06 -7.00839e-08 0)
(2.80213e-06 -6.95876e-08 0)
(2.85924e-06 -6.8755e-08 0)
(2.91733e-06 -6.75444e-08 0)
(2.97631e-06 -6.5958e-08 0)
(3.03604e-06 -6.39897e-08 0)
(3.09642e-06 -6.15815e-08 0)
(3.15729e-06 -5.86659e-08 0)
(3.21855e-06 -5.51809e-08 0)
(3.28006e-06 -5.1067e-08 0)
(3.34175e-06 -4.62349e-08 0)
(3.40331e-06 -4.05982e-08 0)
(3.46481e-06 -3.40363e-08 0)
(3.52554e-06 -2.64785e-08 0)
(2.36776e-06 -1.02183e-07 0)
(2.42053e-06 -1.02086e-07 0)
(2.47466e-06 -1.02045e-07 0)
(2.52972e-06 -1.02046e-07 0)
(2.58596e-06 -1.01858e-07 0)
(2.64318e-06 -1.01511e-07 0)
(2.70141e-06 -1.00854e-07 0)
(2.76051e-06 -9.9865e-08 0)
(2.82048e-06 -9.84589e-08 0)
(2.88122e-06 -9.6596e-08 0)
(2.94263e-06 -9.42558e-08 0)
(3.00461e-06 -9.13928e-08 0)
(3.06708e-06 -8.79182e-08 0)
(3.12992e-06 -8.37549e-08 0)
(3.19306e-06 -7.88364e-08 0)
(3.25637e-06 -7.30606e-08 0)
(3.31978e-06 -6.63011e-08 0)
(3.38303e-06 -5.84349e-08 0)
(3.44615e-06 -4.92813e-08 0)
(3.5085e-06 -3.87631e-08 0)
(2.27569e-06 -1.42259e-07 0)
(2.33577e-06 -1.40494e-07 0)
(2.39661e-06 -1.39003e-07 0)
(2.4575e-06 -1.37937e-07 0)
(2.51904e-06 -1.36805e-07 0)
(2.58102e-06 -1.3564e-07 0)
(2.64361e-06 -1.34203e-07 0)
(2.70669e-06 -1.32468e-07 0)
(2.77031e-06 -1.3029e-07 0)
(2.8344e-06 -1.27603e-07 0)
(2.89893e-06 -1.24361e-07 0)
(2.96383e-06 -1.20487e-07 0)
(3.02904e-06 -1.15867e-07 0)
(3.09448e-06 -1.10406e-07 0)
(3.16009e-06 -1.04016e-07 0)
(3.22573e-06 -9.65556e-08 0)
(3.29139e-06 -8.78652e-08 0)
(3.35678e-06 -7.77889e-08 0)
(3.42204e-06 -6.60774e-08 0)
(3.48648e-06 -5.26475e-08 0)
(2.16569e-06 -1.89534e-07 0)
(2.23415e-06 -1.85053e-07 0)
(2.30287e-06 -1.81151e-07 0)
(2.37069e-06 -1.78275e-07 0)
(2.43861e-06 -1.75601e-07 0)
(2.50632e-06 -1.73147e-07 0)
(2.57411e-06 -1.70548e-07 0)
(2.64194e-06 -1.67725e-07 0)
(2.70994e-06 -1.64506e-07 0)
(2.77807e-06 -1.60794e-07 0)
(2.84636e-06 -1.56503e-07 0)
(2.91479e-06 -1.51512e-07 0)
(2.9833e-06 -1.45671e-07 0)
(3.05183e-06 -1.38862e-07 0)
(3.12038e-06 -1.30956e-07 0)
(3.18882e-06 -1.21789e-07 0)
(3.2572e-06 -1.1117e-07 0)
(3.32518e-06 -9.89152e-08 0)
(3.39302e-06 -8.47077e-08 0)
(3.46e-06 -6.84214e-08 0)
(2.04076e-06 -2.44672e-07 0)
(2.11845e-06 -2.36379e-07 0)
(2.19594e-06 -2.29107e-07 0)
(2.27152e-06 -2.23628e-07 0)
(2.34654e-06 -2.18765e-07 0)
(2.42071e-06 -2.14457e-07 0)
(2.49438e-06 -2.10268e-07 0)
(2.56761e-06 -2.06012e-07 0)
(2.6406e-06 -2.01487e-07 0)
(2.71338e-06 -1.96541e-07 0)
(2.78599e-06 -1.91028e-07 0)
(2.85843e-06 -1.84772e-07 0)
(2.9307e-06 -1.77593e-07 0)
(3.00279e-06 -1.6935e-07 0)
(3.07472e-06 -1.59878e-07 0)
(3.14639e-06 -1.48991e-07 0)
(3.21789e-06 -1.36461e-07 0)
(3.28892e-06 -1.22058e-07 0)
(3.3597e-06 -1.05396e-07 0)
(3.42959e-06 -8.63024e-08 0)
(1.90384e-06 -3.07862e-07 0)
(1.99116e-06 -2.94547e-07 0)
(2.07792e-06 -2.8295e-07 0)
(2.16191e-06 -2.73968e-07 0)
(2.24467e-06 -2.66217e-07 0)
(2.32591e-06 -2.59463e-07 0)
(2.40611e-06 -2.53213e-07 0)
(2.48535e-06 -2.47162e-07 0)
(2.56387e-06 -2.41047e-07 0)
(2.64176e-06 -2.34639e-07 0)
(2.71911e-06 -2.27722e-07 0)
(2.79597e-06 -2.20069e-07 0)
(2.87238e-06 -2.11471e-07 0)
(2.94841e-06 -2.01757e-07 0)
(3.02408e-06 -1.90722e-07 0)
(3.09936e-06 -1.78146e-07 0)
(3.17431e-06 -1.63748e-07 0)
(3.24869e-06 -1.47245e-07 0)
(3.32273e-06 -1.28182e-07 0)
(3.39585e-06 -1.06343e-07 0)
(1.7579e-06 -3.78998e-07 0)
(1.85519e-06 -3.59594e-07 0)
(1.95149e-06 -3.43012e-07 0)
(2.04431e-06 -3.29712e-07 0)
(2.1352e-06 -3.18456e-07 0)
(2.22394e-06 -3.0871e-07 0)
(2.31102e-06 -2.99929e-07 0)
(2.39664e-06 -2.91685e-07 0)
(2.48104e-06 -2.8364e-07 0)
(2.56438e-06 -2.75482e-07 0)
(2.6468e-06 -2.66926e-07 0)
(2.7284e-06 -2.57703e-07 0)
(2.80928e-06 -2.47572e-07 0)
(2.88956e-06 -2.36319e-07 0)
(2.96927e-06 -2.23686e-07 0)
(3.04841e-06 -2.09411e-07 0)
(3.12709e-06 -1.93151e-07 0)
(3.20506e-06 -1.74572e-07 0)
(3.28262e-06 -1.53159e-07 0)
(3.35926e-06 -1.28663e-07 0)
(1.60586e-06 -4.57196e-07 0)
(1.71403e-06 -4.29789e-07 0)
(1.81997e-06 -4.07549e-07 0)
(1.92206e-06 -3.89211e-07 0)
(2.02128e-06 -3.73856e-07 0)
(2.11781e-06 -3.60625e-07 0)
(2.21203e-06 -3.48905e-07 0)
(2.30424e-06 -3.3816e-07 0)
(2.39472e-06 -3.27956e-07 0)
(2.48369e-06 -3.17888e-07 0)
(2.57134e-06 -3.07604e-07 0)
(2.65784e-06 -2.96776e-07 0)
(2.74333e-06 -2.85115e-07 0)
(2.82796e-06 -2.72352e-07 0)
(2.91179e-06 -2.58176e-07 0)
(2.99488e-06 -2.42279e-07 0)
(3.07733e-06 -2.24264e-07 0)
(3.159e-06 -2.03731e-07 0)
(3.24019e-06 -1.80115e-07 0)
(3.32051e-06 -1.53104e-07 0)
(1.48913e-06 -5.35734e-07 0)
(1.60638e-06 -5.00587e-07 0)
(1.71915e-06 -4.73458e-07 0)
(1.82778e-06 -4.50607e-07 0)
(1.93276e-06 -4.31312e-07 0)
(2.0346e-06 -4.14589e-07 0)
(2.1337e-06 -3.99758e-07 0)
(2.23043e-06 -3.86241e-07 0)
(2.32508e-06 -3.73536e-07 0)
(2.4179e-06 -3.61194e-07 0)
(2.50912e-06 -3.48822e-07 0)
(2.59892e-06 -3.36062e-07 0)
(2.68748e-06 -3.22586e-07 0)
(2.77498e-06 -3.08084e-07 0)
(2.86147e-06 -2.92214e-07 0)
(2.94706e-06 -2.74628e-07 0)
(3.03186e-06 -2.54914e-07 0)
(3.11583e-06 -2.3263e-07 0)
(3.19925e-06 -2.07207e-07 0)
(3.28188e-06 -1.78272e-07 0)
(1.42424e-06 -6.01491e-07 0)
(1.54236e-06 -5.64696e-07 0)
(1.6563e-06 -5.34485e-07 0)
(1.7668e-06 -5.08553e-07 0)
(1.8739e-06 -4.86226e-07 0)
(1.97792e-06 -4.66633e-07 0)
(2.07917e-06 -4.49093e-07 0)
(2.17797e-06 -4.33029e-07 0)
(2.27455e-06 -4.17932e-07 0)
(2.36915e-06 -4.03346e-07 0)
(2.46201e-06 -3.88872e-07 0)
(2.5533e-06 -3.74143e-07 0)
(2.64322e-06 -3.58813e-07 0)
(2.73193e-06 -3.42555e-07 0)
(2.81947e-06 -3.2502e-07 0)
(2.90603e-06 -3.05848e-07 0)
(2.99168e-06 -2.84639e-07 0)
(3.07648e-06 -2.60954e-07 0)
(3.16068e-06 -2.34246e-07 0)
(3.24412e-06 -2.04103e-07 0)
(1.37061e-06 -6.63508e-07 0)
(1.48735e-06 -6.26243e-07 0)
(1.60117e-06 -5.94387e-07 0)
(1.71211e-06 -5.66305e-07 0)
(1.82012e-06 -5.41562e-07 0)
(1.92528e-06 -5.19478e-07 0)
(2.02784e-06 -4.99462e-07 0)
(2.12797e-06 -4.80988e-07 0)
(2.22587e-06 -4.63573e-07 0)
(2.32176e-06 -4.46782e-07 0)
(2.41583e-06 -4.30223e-07 0)
(2.50825e-06 -4.13523e-07 0)
(2.59921e-06 -3.96333e-07 0)
(2.68886e-06 -3.78317e-07 0)
(2.77725e-06 -3.5913e-07 0)
(2.8646e-06 -3.38406e-07 0)
(2.95097e-06 -3.15769e-07 0)
(3.0365e-06 -2.90793e-07 0)
(3.12137e-06 -2.62948e-07 0)
(3.20556e-06 -2.31812e-07 0)
(1.32398e-06 -7.23191e-07 0)
(1.43893e-06 -6.85847e-07 0)
(1.55179e-06 -6.52867e-07 0)
(1.66232e-06 -6.23123e-07 0)
(1.77038e-06 -5.96377e-07 0)
(1.87594e-06 -5.72125e-07 0)
(1.97912e-06 -5.49886e-07 0)
(2.08e-06 -5.29195e-07 0)
(2.17874e-06 -5.09611e-07 0)
(2.27549e-06 -4.9073e-07 0)
(2.37043e-06 -4.72176e-07 0)
(2.46369e-06 -4.53584e-07 0)
(2.55545e-06 -4.34608e-07 0)
(2.64585e-06 -4.14913e-07 0)
(2.73495e-06 -3.94158e-07 0)
(2.82298e-06 -3.71989e-07 0)
(2.90999e-06 -3.4805e-07 0)
(2.99616e-06 -3.21936e-07 0)
(3.08165e-06 -2.93135e-07 0)
(3.16655e-06 -2.61267e-07 0)
(1.28323e-06 -7.80314e-07 0)
(1.39611e-06 -7.43198e-07 0)
(1.50749e-06 -7.09611e-07 0)
(1.61703e-06 -6.78705e-07 0)
(1.72453e-06 -6.504e-07 0)
(1.8299e-06 -6.24352e-07 0)
(1.93315e-06 -6.00185e-07 0)
(2.03428e-06 -5.77508e-07 0)
(2.13341e-06 -5.55939e-07 0)
(2.23066e-06 -5.35114e-07 0)
(2.32615e-06 -5.14683e-07 0)
(2.41998e-06 -4.94295e-07 0)
(2.51231e-06 -4.7362e-07 0)
(2.60328e-06 -4.52332e-07 0)
(2.69295e-06 -4.30101e-07 0)
(2.78154e-06 -4.06589e-07 0)
(2.86909e-06 -3.81461e-07 0)
(2.95583e-06 -3.54335e-07 0)
(3.04188e-06 -3.24734e-07 0)
(3.12743e-06 -2.92383e-07 0)
(1.24718e-06 -8.35086e-07 0)
(1.35786e-06 -7.98381e-07 0)
(1.46754e-06 -7.64493e-07 0)
(1.57569e-06 -7.32781e-07 0)
(1.68223e-06 -7.03276e-07 0)
(1.78696e-06 -6.75757e-07 0)
(1.88985e-06 -6.49946e-07 0)
(1.99085e-06 -6.25532e-07 0)
(2.09002e-06 -6.02188e-07 0)
(2.18743e-06 -5.79599e-07 0)
(2.28319e-06 -5.57443e-07 0)
(2.37734e-06 -5.35394e-07 0)
(2.47005e-06 -5.1314e-07 0)
(2.56141e-06 -4.90375e-07 0)
(2.6515e-06 -4.66781e-07 0)
(2.74053e-06 -4.42046e-07 0)
(2.82854e-06 -4.15853e-07 0)
(2.91576e-06 -3.87848e-07 0)
(3.00232e-06 -3.57629e-07 0)
(3.08846e-06 -3.25003e-07 0)
(1.21504e-06 -8.87667e-07 0)
(1.32348e-06 -8.51482e-07 0)
(1.43127e-06 -8.17511e-07 0)
(1.53783e-06 -7.85276e-07 0)
(1.64313e-06 -7.5488e-07 0)
(1.74691e-06 -7.26185e-07 0)
(1.84911e-06 -6.99004e-07 0)
(1.94967e-06 -6.73099e-07 0)
(2.04858e-06 -6.48196e-07 0)
(2.14589e-06 -6.2403e-07 0)
(2.24166e-06 -6.00313e-07 0)
(2.33592e-06 -5.76748e-07 0)
(2.42882e-06 -5.53047e-07 0)
(2.52042e-06 -5.28927e-07 0)
(2.6108e-06 -5.04084e-07 0)
(2.70016e-06 -4.78242e-07 0)
(2.78853e-06 -4.51103e-07 0)
(2.87614e-06 -4.22358e-07 0)
(2.96317e-06 -3.91694e-07 0)
(3.0498e-06 -3.58914e-07 0)
(1.1861e-06 -9.38212e-07 0)
(1.29233e-06 -9.02607e-07 0)
(1.39815e-06 -8.68709e-07 0)
(1.503e-06 -8.36165e-07 0)
(1.60687e-06 -8.05122e-07 0)
(1.70948e-06 -7.75499e-07 0)
(1.81077e-06 -7.4719e-07 0)
(1.91063e-06 -7.20019e-07 0)
(2.00905e-06 -6.93763e-07 0)
(2.10603e-06 -6.68208e-07 0)
(2.2016e-06 -6.43101e-07 0)
(2.29579e-06 -6.18175e-07 0)
(2.38871e-06 -5.93164e-07 0)
(2.48041e-06 -5.6782e-07 0)
(2.57096e-06 -5.41853e-07 0)
(2.66054e-06 -5.15022e-07 0)
(2.74919e-06 -4.87069e-07 0)
(2.83716e-06 -4.57731e-07 0)
(2.92456e-06 -4.2676e-07 0)
(3.01161e-06 -3.93905e-07 0)
(1.15973e-06 -9.86889e-07 0)
(1.26379e-06 -9.51891e-07 0)
(1.36764e-06 -9.18176e-07 0)
(1.47073e-06 -8.85479e-07 0)
(1.57305e-06 -8.53974e-07 0)
(1.67435e-06 -8.23628e-07 0)
(1.77457e-06 -7.94401e-07 0)
(1.87357e-06 -7.66171e-07 0)
(1.97131e-06 -7.38756e-07 0)
(2.06779e-06 -7.11996e-07 0)
(2.163e-06 -6.85669e-07 0)
(2.25696e-06 -6.5954e-07 0)
(2.34977e-06 -6.33367e-07 0)
(2.44145e-06 -6.0693e-07 0)
(2.53207e-06 -5.7997e-07 0)
(2.62179e-06 -5.52282e-07 0)
(2.71065e-06 -5.23653e-07 0)
(2.7989e-06 -4.93854e-07 0)
(2.8866e-06 -4.62655e-07 0)
(2.97402e-06 -4.29841e-07 0)
(1.13539e-06 -1.03385e-06 0)
(1.23734e-06 -9.9948e-07 0)
(1.33924e-06 -9.6601e-07 0)
(1.44056e-06 -9.33266e-07 0)
(1.54129e-06 -9.01439e-07 0)
(1.64123e-06 -8.70538e-07 0)
(1.74027e-06 -8.40574e-07 0)
(1.83829e-06 -8.11472e-07 0)
(1.93523e-06 -7.83085e-07 0)
(2.03107e-06 -7.55297e-07 0)
(2.12581e-06 -7.27918e-07 0)
(2.21943e-06 -7.00741e-07 0)
(2.31202e-06 -6.73552e-07 0)
(2.40358e-06 -6.46161e-07 0)
(2.49418e-06 -6.18344e-07 0)
(2.58398e-06 -5.89933e-07 0)
(2.67299e-06 -5.60752e-07 0)
(2.76144e-06 -5.30591e-07 0)
(2.84937e-06 -4.99226e-07 0)
(2.93708e-06 -4.66589e-07 0)
(1.11262e-06 -1.07927e-06 0)
(1.21254e-06 -1.04551e-06 0)
(1.31253e-06 -1.01232e-06 0)
(1.41209e-06 -9.79597e-07 0)
(1.51125e-06 -9.47564e-07 0)
(1.60979e-06 -9.16252e-07 0)
(1.70761e-06 -8.85712e-07 0)
(1.80458e-06 -8.55906e-07 0)
(1.90064e-06 -8.26721e-07 0)
(1.99578e-06 -7.98066e-07 0)
(2.08995e-06 -7.69786e-07 0)
(2.18313e-06 -7.41704e-07 0)
(2.27542e-06 -7.13636e-07 0)
(2.36679e-06 -6.85425e-07 0)
(2.45731e-06 -6.56881e-07 0)
(2.54712e-06 -6.2787e-07 0)
(2.63622e-06 -5.98234e-07 0)
(2.7248e-06 -5.67776e-07 0)
(2.81293e-06 -5.36343e-07 0)
(2.90086e-06 -5.03934e-07 0)
(1.09099e-06 -1.12328e-06 0)
(1.18898e-06 -1.0901e-06 0)
(1.28712e-06 -1.05719e-06 0)
(1.38499e-06 -1.02456e-06 0)
(1.48261e-06 -9.92417e-07 0)
(1.57974e-06 -9.60813e-07 0)
(1.67633e-06 -9.29833e-07 0)
(1.77222e-06 -8.99462e-07 0)
(1.86737e-06 -8.69628e-07 0)
(1.96174e-06 -8.40245e-07 0)
(2.05529e-06 -8.11201e-07 0)
(2.148e-06 -7.82348e-07 0)
(2.23993e-06 -7.53534e-07 0)
(2.33107e-06 -7.24637e-07 0)
(2.42147e-06 -6.95498e-07 0)
(2.51124e-06 -6.65997e-07 0)
(2.60036e-06 -6.35987e-07 0)
(2.68902e-06 -6.05303e-07 0)
(2.77729e-06 -5.73916e-07 0)
(2.86539e-06 -5.41721e-07 0)
(1.07018e-06 -1.16601e-06 0)
(1.16632e-06 -1.13334e-06 0)
(1.2627e-06 -1.10075e-06 0)
(1.35895e-06 -1.06825e-06 0)
(1.45505e-06 -1.03607e-06 0)
(1.55081e-06 -1.00426e-06 0)
(1.64617e-06 -9.72954e-07 0)
(1.741e-06 -9.42133e-07 0)
(1.83522e-06 -9.11781e-07 0)
(1.92883e-06 -8.81809e-07 0)
(2.02174e-06 -8.52142e-07 0)
(2.11394e-06 -8.22661e-07 0)
(2.2055e-06 -7.9324e-07 0)
(2.29637e-06 -7.63788e-07 0)
(2.3866e-06 -7.34162e-07 0)
(2.47628e-06 -7.04252e-07 0)
(2.56537e-06 -6.7394e-07 0)
(2.65409e-06 -6.43122e-07 0)
(2.74243e-06 -6.11816e-07 0)
(2.83065e-06 -5.7988e-07 0)
(1.04987e-06 -1.20756e-06 0)
(1.14425e-06 -1.17539e-06 0)
(1.23896e-06 -1.14311e-06 0)
(1.33364e-06 -1.11076e-06 0)
(1.42828e-06 -1.07858e-06 0)
(1.52272e-06 -1.04666e-06 0)
(1.61691e-06 -1.01512e-06 0)
(1.7107e-06 -9.83976e-07 0)
(1.80404e-06 -9.53226e-07 0)
(1.89687e-06 -9.22791e-07 0)
(1.98915e-06 -8.9262e-07 0)
(2.08084e-06 -8.62625e-07 0)
(2.17201e-06 -8.32709e-07 0)
(2.2626e-06 -8.02801e-07 0)
(2.35263e-06 -7.72769e-07 0)
(2.44219e-06 -7.42521e-07 0)
(2.53122e-06 -7.11984e-07 0)
(2.61995e-06 -6.81118e-07 0)
(2.70834e-06 -6.49862e-07 0)
(2.79663e-06 -6.18234e-07 0)
(1.02972e-06 -1.24805e-06 0)
(1.12245e-06 -1.21635e-06 0)
(1.21556e-06 -1.18436e-06 0)
(1.30873e-06 -1.15218e-06 0)
(1.402e-06 -1.12006e-06 0)
(1.49521e-06 -1.08809e-06 0)
(1.58829e-06 -1.05642e-06 0)
(1.6811e-06 -1.02504e-06 0)
(1.77358e-06 -9.93965e-07 0)
(1.86569e-06 -9.63164e-07 0)
(1.95736e-06 -9.32614e-07 0)
(2.04858e-06 -9.02235e-07 0)
(2.13937e-06 -8.71939e-07 0)
(2.22968e-06 -8.4167e-07 0)
(2.31949e-06 -8.11308e-07 0)
(2.4089e-06 -7.808e-07 0)
(2.49788e-06 -7.50117e-07 0)
(2.58659e-06 -7.19226e-07 0)
(2.67502e-06 -6.88055e-07 0)
(2.76333e-06 -6.56691e-07 0)
(1.0094e-06 -1.28761e-06 0)
(1.10055e-06 -1.25633e-06 0)
(1.19213e-06 -1.22458e-06 0)
(1.28393e-06 -1.19259e-06 0)
(1.37594e-06 -1.16058e-06 0)
(1.46801e-06 -1.12863e-06 0)
(1.56008e-06 -1.09687e-06 0)
(1.65198e-06 -1.06536e-06 0)
(1.74367e-06 -1.03408e-06 0)
(1.83511e-06 -1.00302e-06 0)
(1.92624e-06 -9.72184e-07 0)
(2.01702e-06 -9.4151e-07 0)
(2.10745e-06 -9.10914e-07 0)
(2.19746e-06 -8.80349e-07 0)
(2.28706e-06 -8.4973e-07 0)
(2.37635e-06 -8.19044e-07 0)
(2.46527e-06 -7.88277e-07 0)
(2.55394e-06 -7.57323e-07 0)
(2.64234e-06 -7.26277e-07 0)
(2.73065e-06 -6.95172e-07 0)
(9.88556e-07 -1.32631e-06 0)
(1.07817e-06 -1.29534e-06 0)
(1.16831e-06 -1.2639e-06 0)
(1.25892e-06 -1.23216e-06 0)
(1.34979e-06 -1.20027e-06 0)
(1.44086e-06 -1.16838e-06 0)
(1.53201e-06 -1.13661e-06 0)
(1.62311e-06 -1.10501e-06 0)
(1.71411e-06 -1.0736e-06 0)
(1.80498e-06 -1.04238e-06 0)
(1.89565e-06 -1.01136e-06 0)
(1.98602e-06 -9.80456e-07 0)
(2.07611e-06 -9.4962e-07 0)
(2.16586e-06 -9.18839e-07 0)
(2.25529e-06 -8.88059e-07 0)
(2.34449e-06 -8.57244e-07 0)
(2.43333e-06 -8.26362e-07 0)
(2.52192e-06 -7.95377e-07 0)
(2.61027e-06 -7.64465e-07 0)
(2.69864e-06 -7.33595e-07 0)
(9.66706e-07 -1.36412e-06 0)
(1.05501e-06 -1.33354e-06 0)
(1.14399e-06 -1.30244e-06 0)
(1.23346e-06 -1.27093e-06 0)
(1.32334e-06 -1.23923e-06 0)
(1.41352e-06 -1.20744e-06 0)
(1.50388e-06 -1.1757e-06 0)
(1.59431e-06 -1.14409e-06 0)
(1.68476e-06 -1.11264e-06 0)
(1.77517e-06 -1.08132e-06 0)
(1.86542e-06 -1.05015e-06 0)
(1.95542e-06 -1.0191e-06 0)
(2.04525e-06 -9.88124e-07 0)
(2.13484e-06 -9.57196e-07 0)
(2.22414e-06 -9.26268e-07 0)
(2.31317e-06 -8.95346e-07 0)
(2.40189e-06 -8.64374e-07 0)
(2.49051e-06 -8.33416e-07 0)
(2.57889e-06 -8.02587e-07 0)
(2.66712e-06 -7.71927e-07 0)
(9.43548e-07 -1.40144e-06 0)
(1.03067e-06 -1.37123e-06 0)
(1.11861e-06 -1.34039e-06 0)
(1.20715e-06 -1.30913e-06 0)
(1.2962e-06 -1.2776e-06 0)
(1.38566e-06 -1.24596e-06 0)
(1.47544e-06 -1.21431e-06 0)
(1.56541e-06 -1.18274e-06 0)
(1.65545e-06 -1.15126e-06 0)
(1.74546e-06 -1.11989e-06 0)
(1.83539e-06 -1.08866e-06 0)
(1.9252e-06 -1.05751e-06 0)
(2.01487e-06 -1.02641e-06 0)
(2.10425e-06 -9.95387e-07 0)
(2.19339e-06 -9.64351e-07 0)
(2.28239e-06 -9.33304e-07 0)
(2.37109e-06 -9.02289e-07 0)
(2.45963e-06 -8.71333e-07 0)
(2.54802e-06 -8.4053e-07 0)
(2.63624e-06 -8.1004e-07 0)
(9.18794e-07 -1.43795e-06 0)
(1.00489e-06 -1.40819e-06 0)
(1.09194e-06 -1.37772e-06 0)
(1.17974e-06 -1.34675e-06 0)
(1.26819e-06 -1.31547e-06 0)
(1.35721e-06 -1.28402e-06 0)
(1.44662e-06 -1.25251e-06 0)
(1.53625e-06 -1.22102e-06 0)
(1.626e-06 -1.18957e-06 0)
(1.71586e-06 -1.15819e-06 0)
(1.80566e-06 -1.12692e-06 0)
(1.89528e-06 -1.09573e-06 0)
(1.98479e-06 -1.06455e-06 0)
(2.07411e-06 -1.03342e-06 0)
(2.16316e-06 -1.00233e-06 0)
(2.25206e-06 -9.71199e-07 0)
(2.34077e-06 -9.40157e-07 0)
(2.42929e-06 -9.09123e-07 0)
(2.51771e-06 -8.78311e-07 0)
(2.60589e-06 -8.47848e-07 0)
(6.36538e-08 -1.15982e-06 0)
(1.91662e-07 -1.14333e-06 0)
(3.21686e-07 -1.11085e-06 0)
(4.54876e-07 -1.06388e-06 0)
(5.92095e-07 -1.00411e-06 0)
(7.33871e-07 -9.33838e-07 0)
(8.80376e-07 -8.55634e-07 0)
(1.03133e-06 -7.72101e-07 0)
(1.18662e-06 -6.85822e-07 0)
(1.34459e-06 -5.98685e-07 0)
(6.21835e-08 -1.18193e-06 0)
(1.87138e-07 -1.16689e-06 0)
(3.13705e-07 -1.1372e-06 0)
(4.42836e-07 -1.09422e-06 0)
(5.75224e-07 -1.03932e-06 0)
(7.11273e-07 -9.74472e-07 0)
(8.5111e-07 -9.01852e-07 0)
(9.94362e-07 -8.23746e-07 0)
(1.14064e-06 -7.42496e-07 0)
(1.2883e-06 -6.60326e-07 0)
(6.07955e-08 -1.20465e-06 0)
(1.82871e-07 -1.19093e-06 0)
(3.06207e-07 -1.16376e-06 0)
(4.31534e-07 -1.12439e-06 0)
(5.5944e-07 -1.07397e-06 0)
(6.90205e-07 -1.01421e-06 0)
(8.2396e-07 -9.46985e-07 0)
(9.60516e-07 -8.74243e-07 0)
(1.09953e-06 -7.98045e-07 0)
(1.23985e-06 -7.20241e-07 0)
(5.95286e-08 -1.22792e-06 0)
(1.78987e-07 -1.21531e-06 0)
(2.9949e-07 -1.19027e-06 0)
(4.21554e-07 -1.15395e-06 0)
(5.45696e-07 -1.10736e-06 0)
(6.72087e-07 -1.05197e-06 0)
(8.00811e-07 -9.89507e-07 0)
(9.31686e-07 -9.21685e-07 0)
(1.06433e-06 -8.50481e-07 0)
(1.19787e-06 -7.77484e-07 0)
(5.83704e-08 -1.25172e-06 0)
(1.75367e-07 -1.2401e-06 0)
(2.93248e-07 -1.21698e-06 0)
(4.12346e-07 -1.1834e-06 0)
(5.33105e-07 -1.14028e-06 0)
(6.55639e-07 -1.08892e-06 0)
(7.80009e-07 -1.03089e-06 0)
(9.06069e-07 -9.67629e-07 0)
(1.03346e-06 -9.00994e-07 0)
(1.16127e-06 -8.3242e-07 0)
(5.72787e-08 -1.27602e-06 0)
(1.72003e-07 -1.26525e-06 0)
(2.87459e-07 -1.24381e-06 0)
(4.03892e-07 -1.21264e-06 0)
(5.21651e-07 -1.17258e-06 0)
(6.40843e-07 -1.12481e-06 0)
(7.61428e-07 -1.07074e-06 0)
(8.83277e-07 -1.01169e-06 0)
(1.00612e-06 -9.4934e-07 0)
(1.129e-06 -8.85066e-07 0)
(5.62111e-08 -1.30078e-06 0)
(1.68798e-07 -1.29075e-06 0)
(2.81964e-07 -1.27085e-06 0)
(3.95945e-07 -1.24183e-06 0)
(5.10973e-07 -1.20453e-06 0)
(6.27171e-07 -1.16e-06 0)
(7.44473e-07 -1.10955e-06 0)
(8.6268e-07 -1.05434e-06 0)
(9.81633e-07 -9.9589e-07 0)
(1.1003e-06 -9.35585e-07 0)
(5.5205e-08 -1.32593e-06 0)
(1.65728e-07 -1.31658e-06 0)
(2.7672e-07 -1.29804e-06 0)
(3.88417e-07 -1.27093e-06 0)
(5.00964e-07 -1.23611e-06 0)
(6.14445e-07 -1.19451e-06 0)
(7.28819e-07 -1.14733e-06 0)
(8.43833e-07 -1.09564e-06 0)
(9.59406e-07 -1.04078e-06 0)
(1.07448e-06 -9.84142e-07 0)
(5.42462e-08 -1.35146e-06 0)
(1.62746e-07 -1.34271e-06 0)
(2.71659e-07 -1.32539e-06 0)
(3.81185e-07 -1.30003e-06 0)
(4.91422e-07 -1.26746e-06 0)
(6.02438e-07 -1.22851e-06 0)
(7.14167e-07 -1.18429e-06 0)
(8.26348e-07 -1.1358e-06 0)
(9.38954e-07 -1.08423e-06 0)
(1.05095e-06 -1.03094e-06 0)
(5.32803e-08 -1.37732e-06 0)
(1.59811e-07 -1.36909e-06 0)
(2.66722e-07 -1.35288e-06 0)
(3.74175e-07 -1.32911e-06 0)
(4.82218e-07 -1.29859e-06 0)
(5.90952e-07 -1.26203e-06 0)
(7.00263e-07 -1.2205e-06 0)
(8.09893e-07 -1.17493e-06 0)
(9.19861e-07 -1.12638e-06 0)
(1.02919e-06 -1.07615e-06 0)
(5.22929e-08 -1.40347e-06 0)
(1.5691e-07 -1.39571e-06 0)
(2.61853e-07 -1.3805e-06 0)
(3.67292e-07 -1.35819e-06 0)
(4.73232e-07 -1.32952e-06 0)
(5.79803e-07 -1.29515e-06 0)
(6.86875e-07 -1.25607e-06 0)
(7.94189e-07 -1.21317e-06 0)
(9.01781e-07 -1.16737e-06 0)
(1.00875e-06 -1.11994e-06 0)
(5.13107e-08 -1.42983e-06 0)
(1.54034e-07 -1.42251e-06 0)
(2.57008e-07 -1.40823e-06 0)
(3.60456e-07 -1.38724e-06 0)
(4.64363e-07 -1.36025e-06 0)
(5.68847e-07 -1.32788e-06 0)
(6.7381e-07 -1.29105e-06 0)
(7.78988e-07 -1.25059e-06 0)
(8.8441e-07 -1.20731e-06 0)
(9.89283e-07 -1.16241e-06 0)
(5.03396e-08 -1.45637e-06 0)
(1.51134e-07 -1.44946e-06 0)
(2.52122e-07 -1.43603e-06 0)
(3.53574e-07 -1.41625e-06 0)
(4.5549e-07 -1.39081e-06 0)
(5.57942e-07 -1.36028e-06 0)
(6.60883e-07 -1.32551e-06 0)
(7.64053e-07 -1.28727e-06 0)
(8.67478e-07 -1.24628e-06 0)
(9.70482e-07 -1.20372e-06 0)
(4.93494e-08 -1.48303e-06 0)
(1.48138e-07 -1.47652e-06 0)
(2.47114e-07 -1.46385e-06 0)
(3.4655e-07 -1.44519e-06 0)
(4.46478e-07 -1.42117e-06 0)
(5.46932e-07 -1.39234e-06 0)
(6.47905e-07 -1.35946e-06 0)
(7.49162e-07 -1.32325e-06 0)
(8.50733e-07 -1.28441e-06 0)
(9.52031e-07 -1.24399e-06 0)
(4.83044e-08 -1.50978e-06 0)
(1.44994e-07 -1.50364e-06 0)
(2.41912e-07 -1.49167e-06 0)
(3.3929e-07 -1.47405e-06 0)
(4.37195e-07 -1.45134e-06 0)
(5.35652e-07 -1.42409e-06 0)
(6.34678e-07 -1.39295e-06 0)
(7.34092e-07 -1.35862e-06 0)
(8.33901e-07 -1.32177e-06 0)
(9.33598e-07 -1.28331e-06 0)
(4.71935e-08 -1.53652e-06 0)
(1.41686e-07 -1.53072e-06 0)
(2.36466e-07 -1.5194e-06 0)
(3.31706e-07 -1.50275e-06 0)
(4.27516e-07 -1.48127e-06 0)
(5.2394e-07 -1.45546e-06 0)
(6.21021e-07 -1.42594e-06 0)
(7.18632e-07 -1.39338e-06 0)
(8.16721e-07 -1.35838e-06 0)
(9.14893e-07 -1.32174e-06 0)
(4.60201e-08 -1.56321e-06 0)
(1.38195e-07 -1.55774e-06 0)
(2.30701e-07 -1.54703e-06 0)
(3.23684e-07 -1.53129e-06 0)
(4.17304e-07 -1.51096e-06 0)
(5.11631e-07 -1.48651e-06 0)
(6.06734e-07 -1.45853e-06 0)
(7.02506e-07 -1.42766e-06 0)
(7.98883e-07 -1.39436e-06 0)
(8.95537e-07 -1.35943e-06 0)
(4.4776e-08 -1.58964e-06 0)
(1.34469e-07 -1.58449e-06 0)
(2.24526e-07 -1.57436e-06 0)
(3.15107e-07 -1.55948e-06 0)
(4.0641e-07 -1.54024e-06 0)
(4.98543e-07 -1.51709e-06 0)
(5.91584e-07 -1.49057e-06 0)
(6.85432e-07 -1.46128e-06 0)
(7.80054e-07 -1.42962e-06 0)
(8.75197e-07 -1.3963e-06 0)
(4.34317e-08 -1.61592e-06 0)
(1.30423e-07 -1.61107e-06 0)
(2.17813e-07 -1.6015e-06 0)
(3.05806e-07 -1.58745e-06 0)
(3.94621e-07 -1.56926e-06 0)
(4.84409e-07 -1.54737e-06 0)
(5.75253e-07 -1.52228e-06 0)
(6.67081e-07 -1.49448e-06 0)
(7.59851e-07 -1.46441e-06 0)
(8.53447e-07 -1.43264e-06 0)
(4.19669e-08 -1.64149e-06 0)
(1.26022e-07 -1.63692e-06 0)
(2.1051e-07 -1.62791e-06 0)
(2.95704e-07 -1.61467e-06 0)
(3.81857e-07 -1.59752e-06 0)
(4.69127e-07 -1.57688e-06 0)
(5.57592e-07 -1.55318e-06 0)
(6.47261e-07 -1.52686e-06 0)
(7.38095e-07 -1.49837e-06 0)
(8.30112e-07 -1.46813e-06 0)
)


// ************************************************************************* //
