/*--------------------------------*- C++ -*----------------------------------*\
| =========                 |                                                 |
| \\      /  F ield         | foam-extend: Open Source CFD                    |
|  \\    /   O peration     | Version:     4.1                                |
|   \\  /    A nd           | Web:         http://www.foam-extend.org         |
|    \\/     M anipulation  |                                                 |
\*---------------------------------------------------------------------------*/
FoamFile
{
    version     2.0;
    format      ascii;
    class       vectorField;
    location    "3";
    object      solidsCellD_iteration3;
}
// * * * * * * * * * * * * * * * * * * * * * * * * * * * * * * * * * * * * * //


1000
(
(1.39564e-06 -5.14755e-07 0)
(1.32718e-06 -4.83259e-07 0)
(1.28503e-06 -4.64988e-07 0)
(1.26276e-06 -4.58637e-07 0)
(1.25424e-06 -4.5921e-07 0)
(1.25585e-06 -4.65128e-07 0)
(1.2649e-06 -4.7462e-07 0)
(1.2795e-06 -4.86903e-07 0)
(1.29813e-06 -5.01136e-07 0)
(1.31834e-06 -5.17468e-07 0)
(1.26358e-06 -5.62417e-07 0)
(1.19044e-06 -5.42193e-07 0)
(1.1451e-06 -5.31227e-07 0)
(1.12036e-06 -5.2992e-07 0)
(1.10977e-06 -5.33907e-07 0)
(1.10922e-06 -5.42322e-07 0)
(1.116e-06 -5.53655e-07 0)
(1.12809e-06 -5.67274e-07 0)
(1.14399e-06 -5.82486e-07 0)
(1.16178e-06 -5.99122e-07 0)
(1.12571e-06 -6.07548e-07 0)
(1.05086e-06 -5.99922e-07 0)
(1.00433e-06 -5.96952e-07 0)
(9.78253e-07 -6.01084e-07 0)
(9.66263e-07 -6.0866e-07 0)
(9.64111e-07 -6.19546e-07 0)
(9.69059e-07 -6.32562e-07 0)
(9.79179e-07 -6.47248e-07 0)
(9.92967e-07 -6.63145e-07 0)
(1.00887e-06 -6.79957e-07 0)
(9.83302e-07 -6.49346e-07 0)
(9.09878e-07 -6.54879e-07 0)
(8.64174e-07 -6.60231e-07 0)
(8.3807e-07 -6.6993e-07 0)
(8.25441e-07 -6.81157e-07 0)
(8.22236e-07 -6.94491e-07 0)
(8.25769e-07 -7.09102e-07 0)
(8.34203e-07 -7.24819e-07 0)
(8.46157e-07 -7.41418e-07 0)
(8.60215e-07 -7.58534e-07 0)
(8.37295e-07 -6.8698e-07 0)
(7.6848e-07 -7.05511e-07 0)
(7.25524e-07 -7.19114e-07 0)
(7.00722e-07 -7.34282e-07 0)
(6.88381e-07 -7.49012e-07 0)
(6.84648e-07 -7.64692e-07 0)
(6.87097e-07 -7.80846e-07 0)
(6.93978e-07 -7.97576e-07 0)
(7.04161e-07 -8.14853e-07 0)
(7.16303e-07 -8.32381e-07 0)
(6.88482e-07 -7.19689e-07 0)
(6.27261e-07 -7.50359e-07 0)
(5.89022e-07 -7.71633e-07 0)
(5.66782e-07 -7.91894e-07 0)
(5.5551e-07 -8.0992e-07 0)
(5.51692e-07 -8.278e-07 0)
(5.53326e-07 -8.45349e-07 0)
(5.58835e-07 -8.63028e-07 0)
(5.67256e-07 -8.80958e-07 0)
(5.77367e-07 -8.9896e-07 0)
(5.37523e-07 -7.4675e-07 0)
(4.86719e-07 -7.88034e-07 0)
(4.54953e-07 -8.16046e-07 0)
(4.3636e-07 -8.40762e-07 0)
(4.26789e-07 -8.61652e-07 0)
(4.23346e-07 -8.81456e-07 0)
(4.24399e-07 -9.00241e-07 0)
(4.28624e-07 -9.18782e-07 0)
(4.35238e-07 -9.37303e-07 0)
(4.43211e-07 -9.55782e-07 0)
(3.85003e-07 -7.67588e-07 0)
(3.46945e-07 -8.17394e-07 0)
(3.23132e-07 -8.50825e-07 0)
(3.09166e-07 -8.79092e-07 0)
(3.01869e-07 -9.02282e-07 0)
(2.99138e-07 -9.23616e-07 0)
(2.99767e-07 -9.43418e-07 0)
(3.02757e-07 -9.62664e-07 0)
(3.07522e-07 -9.81651e-07 0)
(3.1326e-07 -1.00051e-06 0)
(2.31454e-07 -7.81742e-07 0)
(2.07912e-07 -8.37498e-07 0)
(1.93156e-07 -8.74713e-07 0)
(1.84436e-07 -9.05502e-07 0)
(1.79843e-07 -9.30302e-07 0)
(1.78122e-07 -9.52706e-07 0)
(1.78482e-07 -9.73226e-07 0)
(1.8025e-07 -9.92993e-07 0)
(1.83089e-07 -1.01235e-06 0)
(1.86539e-07 -1.03154e-06 0)
(7.73185e-08 -7.88877e-07 0)
(6.93028e-08 -8.47687e-07 0)
(6.42852e-08 -8.86866e-07 0)
(6.13483e-08 -9.18948e-07 0)
(5.97966e-08 -9.44561e-07 0)
(5.91772e-08 -9.67508e-07 0)
(5.92678e-08 -9.88377e-07 0)
(5.98582e-08 -1.00838e-06 0)
(6.08057e-08 -1.0279e-06 0)
(6.19459e-08 -1.04723e-06 0)
(2.15873e-06 -2.34166e-08 0)
(2.17695e-06 -1.70406e-08 0)
(2.19006e-06 -1.30775e-08 0)
(2.2051e-06 -1.08391e-08 0)
(2.22219e-06 -9.70078e-09 0)
(2.24288e-06 -9.28959e-09 0)
(2.26702e-06 -9.35635e-09 0)
(2.29466e-06 -9.76446e-09 0)
(2.32572e-06 -1.04049e-08 0)
(2.3598e-06 -1.11167e-08 0)
(2.14323e-06 -7.02526e-08 0)
(2.15852e-06 -5.15116e-08 0)
(2.16984e-06 -3.99047e-08 0)
(2.18367e-06 -3.33692e-08 0)
(2.19996e-06 -3.00464e-08 0)
(2.22004e-06 -2.88832e-08 0)
(2.24378e-06 -2.91528e-08 0)
(2.2711e-06 -3.03874e-08 0)
(2.30188e-06 -3.22858e-08 0)
(2.33568e-06 -3.44287e-08 0)
(2.11213e-06 -1.17507e-07 0)
(2.12193e-06 -8.74637e-08 0)
(2.12979e-06 -6.88889e-08 0)
(2.14136e-06 -5.84608e-08 0)
(2.15613e-06 -5.32049e-08 0)
(2.17517e-06 -5.14357e-08 0)
(2.19812e-06 -5.1968e-08 0)
(2.22478e-06 -5.40473e-08 0)
(2.25501e-06 -5.72115e-08 0)
(2.28826e-06 -6.08e-08 0)
(2.06603e-06 -1.65377e-07 0)
(2.06805e-06 -1.25709e-07 0)
(2.07094e-06 -1.01246e-07 0)
(2.07928e-06 -8.75991e-08 0)
(2.09188e-06 -8.07895e-08 0)
(2.10933e-06 -7.86219e-08 0)
(2.13114e-06 -7.95392e-08 0)
(2.15693e-06 -8.25365e-08 0)
(2.18641e-06 -8.69825e-08 0)
(2.21894e-06 -9.20029e-08 0)
(2.00552e-06 -2.14036e-07 0)
(1.99797e-06 -1.66966e-07 0)
(1.99472e-06 -1.38003e-07 0)
(1.99898e-06 -1.22019e-07 0)
(2.00891e-06 -1.14182e-07 0)
(2.02446e-06 -1.11925e-07 0)
(2.04486e-06 -1.13393e-07 0)
(2.06955e-06 -1.17371e-07 0)
(2.09808e-06 -1.23085e-07 0)
(2.12974e-06 -1.29514e-07 0)
(1.93152e-06 -2.63503e-07 0)
(1.91307e-06 -2.11698e-07 0)
(1.90288e-06 -1.79875e-07 0)
(1.90251e-06 -1.62602e-07 0)
(1.90941e-06 -1.54386e-07 0)
(1.92281e-06 -1.52414e-07 0)
(1.94161e-06 -1.54596e-07 0)
(1.96502e-06 -1.59604e-07 0)
(1.99249e-06 -1.6656e-07 0)
(2.02327e-06 -1.74376e-07 0)
(1.84496e-06 -3.13656e-07 0)
(1.815e-06 -2.60085e-07 0)
(1.7975e-06 -2.27255e-07 0)
(1.79224e-06 -2.09852e-07 0)
(1.79587e-06 -2.01963e-07 0)
(1.80696e-06 -2.00677e-07 0)
(1.82404e-06 -2.03768e-07 0)
(1.84606e-06 -2.09886e-07 0)
(1.87238e-06 -2.18099e-07 0)
(1.90232e-06 -2.27277e-07 0)
(1.74691e-06 -3.64266e-07 0)
(1.70551e-06 -3.1201e-07 0)
(1.68073e-06 -2.80121e-07 0)
(1.67058e-06 -2.63787e-07 0)
(1.67088e-06 -2.56959e-07 0)
(1.6796e-06 -2.56791e-07 0)
(1.69492e-06 -2.61009e-07 0)
(1.71555e-06 -2.68329e-07 0)
(1.7407e-06 -2.7779e-07 0)
(1.76984e-06 -2.88303e-07 0)
(1.63856e-06 -4.14986e-07 0)
(1.58647e-06 -3.67048e-07 0)
(1.55495e-06 -3.38014e-07 0)
(1.54019e-06 -3.23947e-07 0)
(1.5373e-06 -3.1892e-07 0)
(1.54364e-06 -3.20333e-07 0)
(1.55712e-06 -3.2596e-07 0)
(1.57626e-06 -3.34592e-07 0)
(1.60004e-06 -3.45346e-07 0)
(1.62831e-06 -3.57081e-07 0)
(1.5211e-06 -4.65315e-07 0)
(1.45974e-06 -4.24436e-07 0)
(1.42231e-06 -4.00041e-07 0)
(1.40346e-06 -3.89384e-07 0)
(1.39762e-06 -3.86865e-07 0)
(1.4016e-06 -3.90337e-07 0)
(1.41312e-06 -3.97729e-07 0)
(1.43063e-06 -4.08017e-07 0)
(1.45299e-06 -4.20346e-07 0)
(1.47989e-06 -4.33951e-07 0)
(2.39675e-06 -1.18084e-08 0)
(2.43689e-06 -1.20958e-08 0)
(2.47949e-06 -1.23768e-08 0)
(2.52434e-06 -1.26064e-08 0)
(2.57119e-06 -1.27727e-08 0)
(2.6199e-06 -1.28724e-08 0)
(2.67033e-06 -1.29077e-08 0)
(2.72226e-06 -1.28926e-08 0)
(2.7755e-06 -1.28187e-08 0)
(2.82991e-06 -1.26671e-08 0)
(2.88538e-06 -1.2422e-08 0)
(2.94176e-06 -1.20836e-08 0)
(2.99889e-06 -1.16557e-08 0)
(3.05664e-06 -1.11337e-08 0)
(3.1149e-06 -1.05024e-08 0)
(3.17347e-06 -9.74554e-09 0)
(3.23226e-06 -8.8465e-09 0)
(3.29096e-06 -7.78711e-09 0)
(3.34959e-06 -6.54499e-09 0)
(3.40749e-06 -5.1194e-09 0)
(2.37365e-06 -3.64251e-08 0)
(2.41566e-06 -3.7164e-08 0)
(2.45993e-06 -3.78814e-08 0)
(2.50627e-06 -3.84565e-08 0)
(2.55449e-06 -3.8863e-08 0)
(2.60444e-06 -3.91055e-08 0)
(2.65596e-06 -3.91696e-08 0)
(2.70889e-06 -3.9064e-08 0)
(2.76306e-06 -3.87607e-08 0)
(2.81833e-06 -3.82359e-08 0)
(2.87458e-06 -3.74667e-08 0)
(2.93169e-06 -3.64446e-08 0)
(2.98953e-06 -3.51564e-08 0)
(3.04796e-06 -3.35755e-08 0)
(3.10685e-06 -3.16623e-08 0)
(3.16599e-06 -2.93792e-08 0)
(3.22532e-06 -2.66781e-08 0)
(3.28453e-06 -2.35077e-08 0)
(3.34371e-06 -1.97991e-08 0)
(3.40218e-06 -1.55371e-08 0)
(2.3282e-06 -6.3788e-08 0)
(2.37388e-06 -6.45548e-08 0)
(2.42153e-06 -6.53234e-08 0)
(2.47079e-06 -6.59573e-08 0)
(2.52163e-06 -6.63754e-08 0)
(2.57394e-06 -6.65856e-08 0)
(2.62766e-06 -6.65341e-08 0)
(2.6826e-06 -6.62154e-08 0)
(2.7386e-06 -6.55789e-08 0)
(2.79554e-06 -6.46005e-08 0)
(2.85336e-06 -6.32497e-08 0)
(2.91196e-06 -6.15015e-08 0)
(2.9712e-06 -5.9317e-08 0)
(3.03094e-06 -5.66458e-08 0)
(3.09106e-06 -5.34275e-08 0)
(3.15141e-06 -4.96002e-08 0)
(3.21188e-06 -4.50827e-08 0)
(3.27218e-06 -3.98019e-08 0)
(3.33242e-06 -3.36451e-08 0)
(3.39192e-06 -2.65748e-08 0)
(2.26175e-06 -9.546e-08 0)
(2.31268e-06 -9.55847e-08 0)
(2.36515e-06 -9.58115e-08 0)
(2.41868e-06 -9.60706e-08 0)
(2.47343e-06 -9.6143e-08 0)
(2.52925e-06 -9.60312e-08 0)
(2.58614e-06 -9.56212e-08 0)
(2.64396e-06 -9.48928e-08 0)
(2.70264e-06 -9.37742e-08 0)
(2.76209e-06 -9.22302e-08 0)
(2.82226e-06 -9.02083e-08 0)
(2.88304e-06 -8.7657e-08 0)
(2.9443e-06 -8.4511e-08 0)
(3.00593e-06 -8.0702e-08 0)
(3.06785e-06 -7.61531e-08 0)
(3.12993e-06 -7.07689e-08 0)
(3.19207e-06 -6.44351e-08 0)
(3.25402e-06 -5.70561e-08 0)
(3.31586e-06 -4.84696e-08 0)
(3.37688e-06 -3.86247e-08 0)
(2.17612e-06 -1.32807e-07 0)
(2.2337e-06 -1.31467e-07 0)
(2.2924e-06 -1.30407e-07 0)
(2.35141e-06 -1.29722e-07 0)
(2.41114e-06 -1.28969e-07 0)
(2.47146e-06 -1.2815e-07 0)
(2.53249e-06 -1.27076e-07 0)
(2.59407e-06 -1.25696e-07 0)
(2.65623e-06 -1.23906e-07 0)
(2.71892e-06 -1.21641e-07 0)
(2.78208e-06 -1.18814e-07 0)
(2.84562e-06 -1.15347e-07 0)
(2.90948e-06 -1.11151e-07 0)
(2.97359e-06 -1.0614e-07 0)
(3.03788e-06 -1.00215e-07 0)
(3.10219e-06 -9.32484e-08 0)
(3.1665e-06 -8.50985e-08 0)
(3.2305e-06 -7.5638e-08 0)
(3.29439e-06 -6.46541e-08 0)
(3.35741e-06 -5.207e-08 0)
(2.07379e-06 -1.76808e-07 0)
(2.1391e-06 -1.73061e-07 0)
(2.20509e-06 -1.69838e-07 0)
(2.27056e-06 -1.6752e-07 0)
(2.33628e-06 -1.65384e-07 0)
(2.40201e-06 -1.63411e-07 0)
(2.46803e-06 -1.61317e-07 0)
(2.53417e-06 -1.58988e-07 0)
(2.60049e-06 -1.56277e-07 0)
(2.66701e-06 -1.53087e-07 0)
(2.73374e-06 -1.49298e-07 0)
(2.80064e-06 -1.44796e-07 0)
(2.86765e-06 -1.39465e-07 0)
(2.93471e-06 -1.33196e-07 0)
(3.00183e-06 -1.25855e-07 0)
(3.06879e-06 -1.17287e-07 0)
(3.13568e-06 -1.07325e-07 0)
(3.20217e-06 -9.58064e-08 0)
(3.26851e-06 -8.24612e-08 0)
(3.33395e-06 -6.71666e-08 0)
(1.95742e-06 -2.28144e-07 0)
(2.03128e-06 -2.21002e-07 0)
(2.10551e-06 -2.14725e-07 0)
(2.17831e-06 -2.10033e-07 0)
(2.25081e-06 -2.05912e-07 0)
(2.32269e-06 -2.02282e-07 0)
(2.39428e-06 -1.98753e-07 0)
(2.46555e-06 -1.95139e-07 0)
(2.53662e-06 -1.9124e-07 0)
(2.60754e-06 -1.86902e-07 0)
(2.67837e-06 -1.81967e-07 0)
(2.74908e-06 -1.76284e-07 0)
(2.81966e-06 -1.69707e-07 0)
(2.89009e-06 -1.62099e-07 0)
(2.96037e-06 -1.53288e-07 0)
(3.03038e-06 -1.43096e-07 0)
(3.10022e-06 -1.31321e-07 0)
(3.16958e-06 -1.17756e-07 0)
(3.23872e-06 -1.02062e-07 0)
(3.30694e-06 -8.40761e-08 0)
(1.82974e-06 -2.86943e-07 0)
(1.91272e-06 -2.75335e-07 0)
(1.99578e-06 -2.65125e-07 0)
(2.07661e-06 -2.57242e-07 0)
(2.15648e-06 -2.50488e-07 0)
(2.23514e-06 -2.44631e-07 0)
(2.3129e-06 -2.39203e-07 0)
(2.38984e-06 -2.33932e-07 0)
(2.46614e-06 -2.28553e-07 0)
(2.54192e-06 -2.22839e-07 0)
(2.61724e-06 -2.16584e-07 0)
(2.69212e-06 -2.09593e-07 0)
(2.76657e-06 -2.01689e-07 0)
(2.84067e-06 -1.92695e-07 0)
(2.91442e-06 -1.82403e-07 0)
(2.98778e-06 -1.70599e-07 0)
(3.06087e-06 -1.57035e-07 0)
(3.13337e-06 -1.41451e-07 0)
(3.2056e-06 -1.23437e-07 0)
(3.27691e-06 -1.02802e-07 0)
(1.69348e-06 -3.53226e-07 0)
(1.78618e-06 -3.36145e-07 0)
(1.8785e-06 -3.21383e-07 0)
(1.96786e-06 -3.09568e-07 0)
(2.05553e-06 -2.99612e-07 0)
(2.14134e-06 -2.90987e-07 0)
(2.22565e-06 -2.83201e-07 0)
(2.30861e-06 -2.75867e-07 0)
(2.39046e-06 -2.68656e-07 0)
(2.47135e-06 -2.61271e-07 0)
(2.55141e-06 -2.53455e-07 0)
(2.63068e-06 -2.44971e-07 0)
(2.70927e-06 -2.35605e-07 0)
(2.78728e-06 -2.25136e-07 0)
(2.86473e-06 -2.13306e-07 0)
(2.94165e-06 -1.99864e-07 0)
(3.01818e-06 -1.84508e-07 0)
(3.09403e-06 -1.66918e-07 0)
(3.16955e-06 -1.46623e-07 0)
(3.2442e-06 -1.23417e-07 0)
(1.55117e-06 -4.26593e-07 0)
(1.65479e-06 -4.0241e-07 0)
(1.75664e-06 -3.8239e-07 0)
(1.85503e-06 -3.65831e-07 0)
(1.95076e-06 -3.51942e-07 0)
(2.04399e-06 -3.39961e-07 0)
(2.13505e-06 -3.2935e-07 0)
(2.2242e-06 -3.19605e-07 0)
(2.31173e-06 -3.10301e-07 0)
(2.39787e-06 -3.01064e-07 0)
(2.48277e-06 -2.91571e-07 0)
(2.56655e-06 -2.81531e-07 0)
(2.64936e-06 -2.70677e-07 0)
(2.73136e-06 -2.58736e-07 0)
(2.81256e-06 -2.45403e-07 0)
(2.89311e-06 -2.30384e-07 0)
(2.97308e-06 -2.13321e-07 0)
(3.05235e-06 -1.9384e-07 0)
(3.13121e-06 -1.71413e-07 0)
(3.20931e-06 -1.45793e-07 0)
(1.44052e-06 -5.00837e-07 0)
(1.55446e-06 -4.68984e-07 0)
(1.66339e-06 -4.44289e-07 0)
(1.7681e-06 -4.23518e-07 0)
(1.8693e-06 -4.0591e-07 0)
(1.9675e-06 -3.90628e-07 0)
(2.06311e-06 -3.7706e-07 0)
(2.15646e-06 -3.64654e-07 0)
(2.24787e-06 -3.5294e-07 0)
(2.33759e-06 -3.4151e-07 0)
(2.4258e-06 -3.30004e-07 0)
(2.51262e-06 -3.18095e-07 0)
(2.59827e-06 -3.05479e-07 0)
(2.6829e-06 -2.91847e-07 0)
(2.76655e-06 -2.76864e-07 0)
(2.84942e-06 -2.6021e-07 0)
(2.93156e-06 -2.41494e-07 0)
(3.01296e-06 -2.2033e-07 0)
(3.0939e-06 -1.96177e-07 0)
(3.17417e-06 -1.68744e-07 0)
(1.37947e-06 -5.62588e-07 0)
(1.49404e-06 -5.29001e-07 0)
(1.60429e-06 -5.01308e-07 0)
(1.71097e-06 -4.7758e-07 0)
(1.81429e-06 -4.57111e-07 0)
(1.91463e-06 -4.39129e-07 0)
(2.01232e-06 -4.23e-07 0)
(2.10766e-06 -4.08176e-07 0)
(2.20093e-06 -3.94187e-07 0)
(2.29237e-06 -3.80623e-07 0)
(2.38214e-06 -3.67113e-07 0)
(2.47039e-06 -3.53318e-07 0)
(2.55734e-06 -3.38922e-07 0)
(2.64315e-06 -3.23603e-07 0)
(2.72784e-06 -3.07021e-07 0)
(2.81167e-06 -2.88854e-07 0)
(2.89464e-06 -2.68713e-07 0)
(2.97686e-06 -2.46233e-07 0)
(3.05856e-06 -2.20886e-07 0)
(3.13964e-06 -1.92326e-07 0)
(1.32947e-06 -6.20739e-07 0)
(1.44252e-06 -5.86739e-07 0)
(1.55256e-06 -5.57427e-07 0)
(1.65965e-06 -5.3159e-07 0)
(1.76386e-06 -5.08798e-07 0)
(1.86533e-06 -4.88442e-07 0)
(1.96429e-06 -4.69956e-07 0)
(2.06094e-06 -4.52841e-07 0)
(2.15551e-06 -4.36654e-07 0)
(2.2482e-06 -4.20995e-07 0)
(2.33915e-06 -4.05493e-07 0)
(2.4285e-06 -3.89807e-07 0)
(2.51649e-06 -3.73621e-07 0)
(2.60324e-06 -3.5661e-07 0)
(2.68879e-06 -3.38439e-07 0)
(2.77341e-06 -3.18792e-07 0)
(2.85711e-06 -2.97297e-07 0)
(2.94005e-06 -2.73603e-07 0)
(3.02241e-06 -2.47185e-07 0)
(3.1042e-06 -2.17662e-07 0)
(1.28623e-06 -6.76352e-07 0)
(1.3974e-06 -6.42319e-07 0)
(1.50644e-06 -6.12012e-07 0)
(1.61309e-06 -5.84628e-07 0)
(1.71736e-06 -5.59957e-07 0)
(1.81922e-06 -5.37553e-07 0)
(1.9188e-06 -5.16962e-07 0)
(2.01619e-06 -4.97748e-07 0)
(2.11158e-06 -4.79506e-07 0)
(2.20511e-06 -4.61861e-07 0)
(2.2969e-06 -4.44451e-07 0)
(2.38707e-06 -4.26945e-07 0)
(2.47586e-06 -4.09038e-07 0)
(2.56336e-06 -3.90409e-07 0)
(2.64962e-06 -3.70733e-07 0)
(2.73492e-06 -3.49706e-07 0)
(2.81924e-06 -3.26975e-07 0)
(2.90281e-06 -3.02199e-07 0)
(2.98577e-06 -2.74848e-07 0)
(3.06823e-06 -2.44588e-07 0)
(1.24847e-06 -7.2957e-07 0)
(1.35757e-06 -6.95723e-07 0)
(1.46515e-06 -6.64874e-07 0)
(1.57083e-06 -6.36417e-07 0)
(1.67456e-06 -6.10287e-07 0)
(1.77623e-06 -5.86191e-07 0)
(1.87589e-06 -5.63783e-07 0)
(1.97354e-06 -5.42697e-07 0)
(2.06931e-06 -5.22576e-07 0)
(2.16332e-06 -5.03083e-07 0)
(2.25564e-06 -4.83878e-07 0)
(2.34636e-06 -4.6465e-07 0)
(2.43574e-06 -4.45113e-07 0)
(2.52381e-06 -4.24959e-07 0)
(2.61064e-06 -4.03873e-07 0)
(2.6965e-06 -3.81565e-07 0)
(2.78136e-06 -3.57698e-07 0)
(2.86548e-06 -3.31938e-07 0)
(2.94897e-06 -3.03786e-07 0)
(3.03205e-06 -2.73038e-07 0)
(1.21503e-06 -7.8058e-07 0)
(1.32199e-06 -7.47083e-07 0)
(1.4279e-06 -7.1595e-07 0)
(1.53226e-06 -6.8674e-07 0)
(1.63506e-06 -6.59485e-07 0)
(1.73614e-06 -6.34007e-07 0)
(1.83547e-06 -6.10056e-07 0)
(1.93298e-06 -5.87333e-07 0)
(2.02877e-06 -5.65532e-07 0)
(2.12295e-06 -5.44361e-07 0)
(2.21553e-06 -5.23512e-07 0)
(2.30659e-06 -5.02697e-07 0)
(2.39635e-06 -4.81657e-07 0)
(2.48482e-06 -4.60097e-07 0)
(2.57209e-06 -4.37717e-07 0)
(2.65839e-06 -4.14238e-07 0)
(2.74371e-06 -3.89339e-07 0)
(2.82829e-06 -3.62709e-07 0)
(2.91227e-06 -3.33932e-07 0)
(2.9959e-06 -3.02914e-07 0)
(1.18514e-06 -8.29549e-07 0)
(1.28993e-06 -7.96485e-07 0)
(1.39405e-06 -7.6525e-07 0)
(1.49689e-06 -7.35545e-07 0)
(1.59851e-06 -7.07455e-07 0)
(1.6987e-06 -6.8088e-07 0)
(1.79739e-06 -6.55647e-07 0)
(1.89447e-06 -6.31519e-07 0)
(1.99e-06 -6.08244e-07 0)
(2.08409e-06 -5.85578e-07 0)
(2.1767e-06 -5.63248e-07 0)
(2.26788e-06 -5.40995e-07 0)
(2.35785e-06 -5.18585e-07 0)
(2.44658e-06 -4.95737e-07 0)
(2.53417e-06 -4.72171e-07 0)
(2.62079e-06 -4.4762e-07 0)
(2.70646e-06 -4.21791e-07 0)
(2.79145e-06 -3.9442e-07 0)
(2.87586e-06 -3.65202e-07 0)
(2.95995e-06 -3.34023e-07 0)
(1.15816e-06 -8.76603e-07 0)
(1.26081e-06 -8.44023e-07 0)
(1.36308e-06 -8.12831e-07 0)
(1.46428e-06 -7.82829e-07 0)
(1.56455e-06 -7.54136e-07 0)
(1.66365e-06 -7.26697e-07 0)
(1.76147e-06 -7.00406e-07 0)
(1.85789e-06 -6.75084e-07 0)
(1.95296e-06 -6.50529e-07 0)
(2.04674e-06 -6.2655e-07 0)
(2.13918e-06 -6.02907e-07 0)
(2.23032e-06 -5.79371e-07 0)
(2.32035e-06 -5.55726e-07 0)
(2.40918e-06 -5.31708e-07 0)
(2.49696e-06 -5.07063e-07 0)
(2.58381e-06 -4.81547e-07 0)
(2.66976e-06 -4.54911e-07 0)
(2.75508e-06 -4.26949e-07 0)
(2.83985e-06 -3.97424e-07 0)
(2.92435e-06 -3.66125e-07 0)
(1.1335e-06 -9.2189e-07 0)
(1.2341e-06 -8.89827e-07 0)
(1.33449e-06 -8.58784e-07 0)
(1.43402e-06 -8.2863e-07 0)
(1.53283e-06 -7.99503e-07 0)
(1.63069e-06 -7.71384e-07 0)
(1.72751e-06 -7.44223e-07 0)
(1.82311e-06 -7.17896e-07 0)
(1.91755e-06 -6.92244e-07 0)
(2.01087e-06 -6.67129e-07 0)
(2.10299e-06 -6.42341e-07 0)
(2.19393e-06 -6.17679e-07 0)
(2.28387e-06 -5.9294e-07 0)
(2.3727e-06 -5.67878e-07 0)
(2.46055e-06 -5.42272e-07 0)
(2.54755e-06 -5.15917e-07 0)
(2.63371e-06 -4.88611e-07 0)
(2.7193e-06 -4.60191e-07 0)
(2.80436e-06 -4.30412e-07 0)
(2.8892e-06 -3.99088e-07 0)
(1.11069e-06 -9.65571e-07 0)
(1.2093e-06 -9.34048e-07 0)
(1.30783e-06 -9.03208e-07 0)
(1.40569e-06 -8.72988e-07 0)
(1.50299e-06 -8.43546e-07 0)
(1.59955e-06 -8.14892e-07 0)
(1.69525e-06 -7.87025e-07 0)
(1.78994e-06 -7.59872e-07 0)
(1.88364e-06 -7.33305e-07 0)
(1.97639e-06 -7.07232e-07 0)
(2.06806e-06 -6.81465e-07 0)
(2.1587e-06 -6.5583e-07 0)
(2.24842e-06 -6.30137e-07 0)
(2.33714e-06 -6.04165e-07 0)
(2.42498e-06 -5.77728e-07 0)
(2.51206e-06 -5.50666e-07 0)
(2.59837e-06 -5.22815e-07 0)
(2.68417e-06 -4.94017e-07 0)
(2.76946e-06 -4.64015e-07 0)
(2.85457e-06 -4.32812e-07 0)
(1.08929e-06 -1.00782e-06 0)
(1.18599e-06 -9.76822e-07 0)
(1.2827e-06 -9.46203e-07 0)
(1.3789e-06 -9.15973e-07 0)
(1.47469e-06 -8.86312e-07 0)
(1.56992e-06 -8.57255e-07 0)
(1.66448e-06 -8.28838e-07 0)
(1.75819e-06 -8.01026e-07 0)
(1.85108e-06 -7.73717e-07 0)
(1.94316e-06 -7.46843e-07 0)
(2.03431e-06 -7.20241e-07 0)
(2.12454e-06 -6.93764e-07 0)
(2.21397e-06 -6.67241e-07 0)
(2.30251e-06 -6.40485e-07 0)
(2.39027e-06 -6.13346e-07 0)
(2.47737e-06 -5.85697e-07 0)
(2.56377e-06 -5.57388e-07 0)
(2.6497e-06 -5.28255e-07 0)
(2.73518e-06 -4.98127e-07 0)
(2.82051e-06 -4.671e-07 0)
(1.06893e-06 -1.04876e-06 0)
(1.16378e-06 -1.01824e-06 0)
(1.25873e-06 -9.87858e-07 0)
(1.3533e-06 -9.57673e-07 0)
(1.44761e-06 -9.27884e-07 0)
(1.54152e-06 -8.98541e-07 0)
(1.63492e-06 -8.69704e-07 0)
(1.72763e-06 -8.41363e-07 0)
(1.81967e-06 -8.13455e-07 0)
(1.91105e-06 -7.85907e-07 0)
(2.0016e-06 -7.58594e-07 0)
(2.09137e-06 -7.31393e-07 0)
(2.18046e-06 -7.04164e-07 0)
(2.26877e-06 -6.76755e-07 0)
(2.35641e-06 -6.49044e-07 0)
(2.44347e-06 -6.20914e-07 0)
(2.52991e-06 -5.92213e-07 0)
(2.61593e-06 -5.6281e-07 0)
(2.70155e-06 -5.32693e-07 0)
(2.78705e-06 -5.01811e-07 0)
(1.04925e-06 -1.08849e-06 0)
(1.14233e-06 -1.0584e-06 0)
(1.23558e-06 -1.02827e-06 0)
(1.32859e-06 -9.98185e-07 0)
(1.42146e-06 -9.68336e-07 0)
(1.51409e-06 -9.38795e-07 0)
(1.60634e-06 -9.0964e-07 0)
(1.69806e-06 -8.80871e-07 0)
(1.78924e-06 -8.52488e-07 0)
(1.87987e-06 -8.24397e-07 0)
(1.96981e-06 -7.96505e-07 0)
(2.05909e-06 -7.68716e-07 0)
(2.14782e-06 -7.40914e-07 0)
(2.23587e-06 -7.12975e-07 0)
(2.32336e-06 -6.84795e-07 0)
(2.41034e-06 -6.56256e-07 0)
(2.49676e-06 -6.2723e-07 0)
(2.58284e-06 -5.97667e-07 0)
(2.66856e-06 -5.67599e-07 0)
(2.75418e-06 -5.3689e-07 0)
(1.02992e-06 -1.1271e-06 0)
(1.12131e-06 -1.09744e-06 0)
(1.21296e-06 -1.06757e-06 0)
(1.30447e-06 -1.0376e-06 0)
(1.39597e-06 -1.00773e-06 0)
(1.48736e-06 -9.78068e-07 0)
(1.57851e-06 -9.48702e-07 0)
(1.66925e-06 -9.19623e-07 0)
(1.75957e-06 -8.90871e-07 0)
(1.84947e-06 -8.62354e-07 0)
(1.9388e-06 -8.33995e-07 0)
(2.0276e-06 -8.05726e-07 0)
(2.11596e-06 -7.77458e-07 0)
(2.20375e-06 -7.49087e-07 0)
(2.29105e-06 -7.20512e-07 0)
(2.37791e-06 -6.9163e-07 0)
(2.46429e-06 -6.62367e-07 0)
(2.55041e-06 -6.32748e-07 0)
(2.6362e-06 -6.02673e-07 0)
(2.72191e-06 -5.72181e-07 0)
(1.01064e-06 -1.16474e-06 0)
(1.10044e-06 -1.13547e-06 0)
(1.19057e-06 -1.10584e-06 0)
(1.28067e-06 -1.076e-06 0)
(1.37087e-06 -1.04617e-06 0)
(1.46109e-06 -1.01647e-06 0)
(1.55119e-06 -9.8697e-07 0)
(1.64098e-06 -9.57674e-07 0)
(1.73049e-06 -9.28611e-07 0)
(1.81968e-06 -8.99751e-07 0)
(1.90844e-06 -8.71041e-07 0)
(1.99678e-06 -8.42417e-07 0)
(2.08479e-06 -8.13799e-07 0)
(2.17229e-06 -7.85087e-07 0)
(2.25938e-06 -7.56194e-07 0)
(2.34612e-06 -7.27056e-07 0)
(2.43247e-06 -6.97654e-07 0)
(2.51861e-06 -6.67993e-07 0)
(2.60444e-06 -6.37933e-07 0)
(2.69018e-06 -6.07613e-07 0)
(9.91131e-07 -1.20151e-06 0)
(1.07943e-06 -1.17259e-06 0)
(1.16811e-06 -1.14315e-06 0)
(1.25691e-06 -1.11348e-06 0)
(1.34592e-06 -1.08374e-06 0)
(1.43505e-06 -1.05405e-06 0)
(1.52416e-06 -1.02447e-06 0)
(1.61307e-06 -9.95043e-07 0)
(1.70181e-06 -9.65779e-07 0)
(1.79037e-06 -9.36671e-07 0)
(1.87862e-06 -9.07695e-07 0)
(1.96654e-06 -8.78796e-07 0)
(2.05418e-06 -8.49897e-07 0)
(2.1414e-06 -8.20912e-07 0)
(2.22829e-06 -7.91782e-07 0)
(2.31495e-06 -7.62485e-07 0)
(2.40127e-06 -7.33007e-07 0)
(2.48738e-06 -7.03241e-07 0)
(2.57319e-06 -6.73257e-07 0)
(2.65892e-06 -6.43101e-07 0)
(9.71095e-07 -1.23743e-06 0)
(1.05793e-06 -1.20877e-06 0)
(1.14524e-06 -1.17963e-06 0)
(1.23291e-06 -1.15018e-06 0)
(1.32083e-06 -1.12055e-06 0)
(1.40898e-06 -1.09089e-06 0)
(1.49718e-06 -1.06128e-06 0)
(1.58531e-06 -1.03178e-06 0)
(1.67339e-06 -1.00241e-06 0)
(1.76142e-06 -9.73153e-07 0)
(1.8492e-06 -9.44002e-07 0)
(1.93671e-06 -9.149e-07 0)
(2.02401e-06 -8.85786e-07 0)
(2.11099e-06 -8.56609e-07 0)
(2.19775e-06 -8.27335e-07 0)
(2.28434e-06 -7.97937e-07 0)
(2.37056e-06 -7.68357e-07 0)
(2.45654e-06 -7.38523e-07 0)
(2.54235e-06 -7.08608e-07 0)
(2.62824e-06 -6.78592e-07 0)
(9.50066e-07 -1.27249e-06 0)
(1.03566e-06 -1.24418e-06 0)
(1.12186e-06 -1.21535e-06 0)
(1.20843e-06 -1.18611e-06 0)
(1.29537e-06 -1.15666e-06 0)
(1.38263e-06 -1.12708e-06 0)
(1.47007e-06 -1.0975e-06 0)
(1.55756e-06 -1.06799e-06 0)
(1.64513e-06 -1.03857e-06 0)
(1.73269e-06 -1.00923e-06 0)
(1.82003e-06 -9.79963e-07 0)
(1.90716e-06 -9.5073e-07 0)
(1.99422e-06 -9.21496e-07 0)
(2.08109e-06 -8.92203e-07 0)
(2.16771e-06 -8.62826e-07 0)
(2.25403e-06 -8.33337e-07 0)
(2.34013e-06 -8.03653e-07 0)
(2.42623e-06 -7.73857e-07 0)
(2.51201e-06 -7.43967e-07 0)
(2.59767e-06 -7.14049e-07 0)
(9.27755e-07 -1.30708e-06 0)
(1.01222e-06 -1.2791e-06 0)
(1.09739e-06 -1.25051e-06 0)
(1.18303e-06 -1.22149e-06 0)
(1.26915e-06 -1.1922e-06 0)
(1.35572e-06 -1.16277e-06 0)
(1.44264e-06 -1.13329e-06 0)
(1.5297e-06 -1.10381e-06 0)
(1.61682e-06 -1.07437e-06 0)
(1.70393e-06 -1.045e-06 0)
(1.79096e-06 -1.01568e-06 0)
(1.87797e-06 -9.86377e-07 0)
(1.96488e-06 -9.57057e-07 0)
(2.05142e-06 -9.2769e-07 0)
(2.13785e-06 -8.9824e-07 0)
(2.2242e-06 -8.68669e-07 0)
(2.31023e-06 -8.38937e-07 0)
(2.39619e-06 -8.09134e-07 0)
(2.48198e-06 -7.79245e-07 0)
(2.56761e-06 -7.49404e-07 0)
(9.03844e-07 -1.34088e-06 0)
(9.87308e-07 -1.31331e-06 0)
(1.07158e-06 -1.28507e-06 0)
(1.15646e-06 -1.25632e-06 0)
(1.24204e-06 -1.22727e-06 0)
(1.32825e-06 -1.19803e-06 0)
(1.4148e-06 -1.16867e-06 0)
(1.50144e-06 -1.13927e-06 0)
(1.58825e-06 -1.10989e-06 0)
(1.67528e-06 -1.08054e-06 0)
(1.76219e-06 -1.05121e-06 0)
(1.84891e-06 -1.02187e-06 0)
(1.93563e-06 -9.92501e-07 0)
(2.02213e-06 -9.63083e-07 0)
(2.1084e-06 -9.33582e-07 0)
(2.19462e-06 -9.03945e-07 0)
(2.28062e-06 -8.74246e-07 0)
(2.3665e-06 -8.44362e-07 0)
(2.45229e-06 -8.14463e-07 0)
(2.53774e-06 -7.84588e-07 0)
(6.20321e-08 -1.06681e-06 0)
(1.86712e-07 -1.05192e-06 0)
(3.13204e-07 -1.02237e-06 0)
(4.42471e-07 -9.79792e-07 0)
(5.7532e-07 -9.2552e-07 0)
(7.12272e-07 -8.61779e-07 0)
(8.53478e-07 -7.90832e-07 0)
(9.98722e-07 -7.15022e-07 0)
(1.14778e-06 -6.36715e-07 0)
(1.2994e-06 -5.57696e-07 0)
(6.08153e-08 -1.08738e-06 0)
(1.82935e-07 -1.07385e-06 0)
(3.06492e-07 -1.0469e-06 0)
(4.32238e-07 -1.00804e-06 0)
(5.60802e-07 -9.58328e-07 0)
(6.92595e-07 -8.99654e-07 0)
(8.27673e-07 -8.33984e-07 0)
(9.65778e-07 -7.6333e-07 0)
(1.10626e-06 -6.89947e-07 0)
(1.24807e-06 -6.15656e-07 0)
(5.96562e-08 -1.10874e-06 0)
(1.79336e-07 -1.09646e-06 0)
(3.00082e-07 -1.07186e-06 0)
(4.22483e-07 -1.03639e-06 0)
(5.47013e-07 -9.90899e-07 0)
(6.73968e-07 -9.36983e-07 0)
(8.03382e-07 -8.76373e-07 0)
(9.35156e-07 -8.10747e-07 0)
(1.06871e-06 -7.42142e-07 0)
(1.20346e-06 -6.71844e-07 0)
(5.85532e-08 -1.13079e-06 0)
(1.75975e-07 -1.11956e-06 0)
(2.9419e-07 -1.09695e-06 0)
(4.13669e-07 -1.06432e-06 0)
(5.34783e-07 -1.02241e-06 0)
(6.57701e-07 -9.72549e-07 0)
(7.82437e-07 -9.16345e-07 0)
(9.08868e-07 -8.55276e-07 0)
(1.03647e-06 -7.91278e-07 0)
(1.16478e-06 -7.25364e-07 0)
(5.75103e-08 -1.15346e-06 0)
(1.72746e-07 -1.14316e-06 0)
(2.88601e-07 -1.12231e-06 0)
(4.05395e-07 -1.0922e-06 0)
(5.23424e-07 -1.05351e-06 0)
(6.42787e-07 -1.00734e-06 0)
(7.63477e-07 -9.5519e-07 0)
(8.85405e-07 -8.98339e-07 0)
(1.00811e-06 -8.38531e-07 0)
(1.131e-06 -7.7668e-07 0)
(5.65317e-08 -1.17669e-06 0)
(1.69687e-07 -1.16716e-06 0)
(2.83339e-07 -1.14788e-06 0)
(3.9768e-07 -1.11994e-06 0)
(5.12945e-07 -1.08406e-06 0)
(6.29216e-07 -1.04117e-06 0)
(7.46405e-07 -9.92643e-07 0)
(8.64414e-07 -9.39656e-07 0)
(9.82907e-07 -8.83753e-07 0)
(1.10114e-06 -8.25833e-07 0)
(5.55518e-08 -1.20043e-06 0)
(1.66727e-07 -1.19157e-06 0)
(2.78274e-07 -1.17371e-06 0)
(3.90318e-07 -1.1477e-06 0)
(5.03064e-07 -1.11432e-06 0)
(6.16555e-07 -1.07439e-06 0)
(7.30697e-07 -1.02914e-06 0)
(8.4532e-07 -9.7966e-07 0)
(9.60211e-07 -9.27287e-07 0)
(1.0745e-06 -8.72973e-07 0)
(5.45877e-08 -1.22461e-06 0)
(1.63854e-07 -1.21632e-06 0)
(2.73369e-07 -1.19973e-06 0)
(3.83248e-07 -1.17542e-06 0)
(4.9369e-07 -1.14427e-06 0)
(6.04664e-07 -1.10701e-06 0)
(7.16082e-07 -1.06471e-06 0)
(8.27732e-07 -1.01839e-06 0)
(9.395e-07 -9.69244e-07 0)
(1.05045e-06 -9.18245e-07 0)
(5.36734e-08 -1.2492e-06 0)
(1.61039e-07 -1.2414e-06 0)
(2.68568e-07 -1.22594e-06 0)
(3.7639e-07 -1.20318e-06 0)
(4.84659e-07 -1.17404e-06 0)
(5.93336e-07 -1.13917e-06 0)
(7.0231e-07 -1.09953e-06 0)
(8.11335e-07 -1.05605e-06 0)
(9.2037e-07 -1.00983e-06 0)
(1.02848e-06 -9.61854e-07 0)
(5.2774e-08 -1.27414e-06 0)
(1.58235e-07 -1.26676e-06 0)
(2.63826e-07 -1.2523e-06 0)
(3.69686e-07 -1.23096e-06 0)
(4.75886e-07 -1.20362e-06 0)
(5.82427e-07 -1.17089e-06 0)
(6.89178e-07 -1.13366e-06 0)
(7.95854e-07 -1.09276e-06 0)
(9.0246e-07 -1.04921e-06 0)
(1.00811e-06 -1.004e-06 0)
(5.18393e-08 -1.29936e-06 0)
(1.55413e-07 -1.29235e-06 0)
(2.59111e-07 -1.27878e-06 0)
(3.63059e-07 -1.25874e-06 0)
(4.67275e-07 -1.23305e-06 0)
(5.71788e-07 -1.20225e-06 0)
(6.76477e-07 -1.16719e-06 0)
(7.81021e-07 -1.12866e-06 0)
(8.85438e-07 -1.08756e-06 0)
(9.88928e-07 -1.04481e-06 0)
(5.08766e-08 -1.32477e-06 0)
(1.52588e-07 -1.31811e-06 0)
(2.54414e-07 -1.30536e-06 0)
(3.56449e-07 -1.28652e-06 0)
(4.58732e-07 -1.26231e-06 0)
(5.61289e-07 -1.23328e-06 0)
(6.6402e-07 -1.2002e-06 0)
(7.66589e-07 -1.16383e-06 0)
(8.69009e-07 -1.12491e-06 0)
(9.7059e-07 -1.0844e-06 0)
(4.99168e-08 -1.35032e-06 0)
(1.49757e-07 -1.34401e-06 0)
(2.4969e-07 -1.332e-06 0)
(3.49789e-07 -1.31425e-06 0)
(4.50158e-07 -1.29141e-06 0)
(5.50803e-07 -1.26398e-06 0)
(6.51641e-07 -1.23272e-06 0)
(7.52339e-07 -1.1983e-06 0)
(8.52915e-07 -1.16137e-06 0)
(9.52779e-07 -1.1229e-06 0)
(4.89587e-08 -1.37595e-06 0)
(1.4687e-07 -1.36999e-06 0)
(2.44859e-07 -1.35865e-06 0)
(3.42998e-07 -1.3419e-06 0)
(4.41449e-07 -1.3203e-06 0)
(5.40199e-07 -1.29437e-06 0)
(6.39173e-07 -1.26477e-06 0)
(7.38069e-07 -1.23211e-06 0)
(8.36909e-07 -1.19704e-06 0)
(9.35187e-07 -1.16043e-06 0)
(4.79661e-08 -1.40163e-06 0)
(1.43857e-07 -1.396e-06 0)
(2.39836e-07 -1.38527e-06 0)
(3.35985e-07 -1.36944e-06 0)
(4.32482e-07 -1.34901e-06 0)
(5.29319e-07 -1.32447e-06 0)
(6.26431e-07 -1.29637e-06 0)
(7.2357e-07 -1.26532e-06 0)
(8.20747e-07 -1.23198e-06 0)
(9.17531e-07 -1.19706e-06 0)
(4.69069e-08 -1.42725e-06 0)
(1.40671e-07 -1.42196e-06 0)
(2.34558e-07 -1.41178e-06 0)
(3.28653e-07 -1.39682e-06 0)
(4.23132e-07 -1.37745e-06 0)
(5.18009e-07 -1.35417e-06 0)
(6.13248e-07 -1.32746e-06 0)
(7.08654e-07 -1.29796e-06 0)
(8.04205e-07 -1.26621e-06 0)
(8.9956e-07 -1.23285e-06 0)
(4.57701e-08 -1.45279e-06 0)
(1.37284e-07 -1.44783e-06 0)
(2.28964e-07 -1.43817e-06 0)
(3.20902e-07 -1.424e-06 0)
(4.13271e-07 -1.40565e-06 0)
(5.0612e-07 -1.38355e-06 0)
(5.9945e-07 -1.35817e-06 0)
(6.93092e-07 -1.33013e-06 0)
(7.87021e-07 -1.29981e-06 0)
(8.80952e-07 -1.26792e-06 0)
(4.45559e-08 -1.47805e-06 0)
(1.33674e-07 -1.4734e-06 0)
(2.22996e-07 -1.46424e-06 0)
(3.12637e-07 -1.4508e-06 0)
(4.02779e-07 -1.43339e-06 0)
(4.93508e-07 -1.41241e-06 0)
(5.84844e-07 -1.38831e-06 0)
(6.7665e-07 -1.36163e-06 0)
(7.68892e-07 -1.3327e-06 0)
(8.61394e-07 -1.30218e-06 0)
(4.32531e-08 -1.50312e-06 0)
(1.29785e-07 -1.49876e-06 0)
(2.16552e-07 -1.49008e-06 0)
(3.0371e-07 -1.47736e-06 0)
(3.91457e-07 -1.46085e-06 0)
(4.79924e-07 -1.44096e-06 0)
(5.69135e-07 -1.41811e-06 0)
(6.58984e-07 -1.3927e-06 0)
(7.49443e-07 -1.36514e-06 0)
(8.40461e-07 -1.33592e-06 0)
(4.18525e-08 -1.52745e-06 0)
(1.25589e-07 -1.52332e-06 0)
(2.09578e-07 -1.51514e-06 0)
(2.94052e-07 -1.50311e-06 0)
(3.79241e-07 -1.4875e-06 0)
(4.65271e-07 -1.4687e-06 0)
(5.52164e-07 -1.44706e-06 0)
(6.39868e-07 -1.42293e-06 0)
(7.28438e-07 -1.39674e-06 0)
(8.17918e-07 -1.36884e-06 0)
)


// ************************************************************************* //
