/*--------------------------------*- C++ -*----------------------------------*\
| =========                 |                                                 |
| \\      /  F ield         | foam-extend: Open Source CFD                    |
|  \\    /   O peration     | Version:     4.1                                |
|   \\  /    A nd           | Web:         http://www.foam-extend.org         |
|    \\/     M anipulation  |                                                 |
\*---------------------------------------------------------------------------*/
FoamFile
{
    version     2.0;
    format      ascii;
    class       vectorField;
    location    "3";
    object      solidsCellD_iteration16;
}
// * * * * * * * * * * * * * * * * * * * * * * * * * * * * * * * * * * * * * //


1000
(
(1.5277e-06 -6.27782e-07 0)
(1.44298e-06 -5.85019e-07 0)
(1.38918e-06 -5.58245e-07 0)
(1.35854e-06 -5.46287e-07 0)
(1.344e-06 -5.42869e-07 0)
(1.34117e-06 -5.46006e-07 0)
(1.34702e-06 -5.53456e-07 0)
(1.35927e-06 -5.64139e-07 0)
(1.37658e-06 -5.76984e-07 0)
(1.39732e-06 -5.9124e-07 0)
(1.38148e-06 -6.85872e-07 0)
(1.29134e-06 -6.56568e-07 0)
(1.23408e-06 -6.38322e-07 0)
(1.20085e-06 -6.32152e-07 0)
(1.18423e-06 -6.3259e-07 0)
(1.17953e-06 -6.38445e-07 0)
(1.18356e-06 -6.47806e-07 0)
(1.19394e-06 -6.59936e-07 0)
(1.20924e-06 -6.73878e-07 0)
(1.22765e-06 -6.89034e-07 0)
(1.22954e-06 -7.40934e-07 0)
(1.13748e-06 -7.26669e-07 0)
(1.07897e-06 -7.1796e-07 0)
(1.04461e-06 -7.18168e-07 0)
(1.02687e-06 -7.22797e-07 0)
(1.02089e-06 -7.31528e-07 0)
(1.02347e-06 -7.42878e-07 0)
(1.03225e-06 -7.56419e-07 0)
(1.04574e-06 -7.71439e-07 0)
(1.06229e-06 -7.87308e-07 0)
(1.07295e-06 -7.91968e-07 0)
(9.82874e-07 -7.93432e-07 0)
(9.25577e-07 -7.94734e-07 0)
(8.91614e-07 -8.01592e-07 0)
(8.73713e-07 -8.1055e-07 0)
(8.67042e-07 -8.22214e-07 0)
(8.68472e-07 -8.35547e-07 0)
(8.75812e-07 -8.50478e-07 0)
(8.87566e-07 -8.66526e-07 0)
(9.02203e-07 -8.83185e-07 0)
(9.12886e-07 -8.37952e-07 0)
(8.28537e-07 -8.55012e-07 0)
(7.74891e-07 -8.66213e-07 0)
(7.4293e-07 -8.79623e-07 0)
(7.25823e-07 -8.92831e-07 0)
(7.18994e-07 -9.07384e-07 0)
(7.19603e-07 -9.22665e-07 0)
(7.25628e-07 -9.38951e-07 0)
(7.35687e-07 -9.56011e-07 0)
(7.48305e-07 -9.73472e-07 0)
(7.49992e-07 -8.78e-07 0)
(6.75172e-07 -9.09648e-07 0)
(6.2759e-07 -9.30118e-07 0)
(5.99067e-07 -9.49654e-07 0)
(5.83619e-07 -9.66831e-07 0)
(5.77173e-07 -9.84057e-07 0)
(5.77279e-07 -1.00113e-06 0)
(5.82093e-07 -1.01867e-06 0)
(5.9041e-07 -1.03667e-06 0)
(6.00875e-07 -1.05495e-06 0)
(5.85186e-07 -9.11169e-07 0)
(5.23149e-07 -9.55586e-07 0)
(4.83688e-07 -9.84195e-07 0)
(4.59942e-07 -1.00912e-06 0)
(4.46997e-07 -1.02977e-06 0)
(4.41454e-07 -1.04933e-06 0)
(4.41291e-07 -1.06796e-06 0)
(4.44948e-07 -1.0866e-06 0)
(4.51459e-07 -1.10543e-06 0)
(4.5967e-07 -1.12443e-06 0)
(4.18951e-07 -9.36764e-07 0)
(3.72474e-07 -9.91444e-07 0)
(3.42927e-07 -1.02657e-06 0)
(3.25124e-07 -1.0558e-06 0)
(3.15383e-07 -1.07923e-06 0)
(3.11129e-07 -1.10068e-06 0)
(3.10854e-07 -1.12059e-06 0)
(3.13396e-07 -1.14013e-06 0)
(3.18065e-07 -1.15963e-06 0)
(3.23968e-07 -1.17925e-06 0)
(2.51767e-07 -9.54169e-07 0)
(2.22994e-07 -1.01601e-06 0)
(2.04737e-07 -1.05567e-06 0)
(1.93689e-07 -1.08793e-06 0)
(1.87595e-07 -1.11332e-06 0)
(1.84893e-07 -1.13607e-06 0)
(1.8468e-07 -1.15689e-06 0)
(1.86207e-07 -1.17709e-06 0)
(1.89014e-07 -1.19707e-06 0)
(1.92561e-07 -1.21714e-06 0)
(8.40859e-08 -9.62943e-07 0)
(7.43519e-08 -1.0285e-06 0)
(6.8117e-08 -1.07049e-06 0)
(6.43512e-08 -1.1043e-06 0)
(6.2309e-08 -1.13069e-06 0)
(6.13849e-08 -1.15413e-06 0)
(6.12622e-08 -1.17539e-06 0)
(6.17531e-08 -1.19591e-06 0)
(6.27012e-08 -1.21615e-06 0)
(6.38827e-08 -1.23646e-06 0)
(2.38139e-06 -2.85833e-08 0)
(2.40226e-06 -2.05775e-08 0)
(2.41527e-06 -1.55243e-08 0)
(2.42944e-06 -1.25784e-08 0)
(2.44516e-06 -1.096e-08 0)
(2.46442e-06 -1.02472e-08 0)
(2.48728e-06 -1.01797e-08 0)
(2.51389e-06 -1.04899e-08 0)
(2.54424e-06 -1.1085e-08 0)
(2.57788e-06 -1.1827e-08 0)
(2.3638e-06 -8.5795e-08 0)
(2.38117e-06 -6.22469e-08 0)
(2.392e-06 -4.7354e-08 0)
(2.40469e-06 -3.87296e-08 0)
(2.41942e-06 -3.41034e-08 0)
(2.43797e-06 -3.20577e-08 0)
(2.46032e-06 -3.18287e-08 0)
(2.48653e-06 -3.28246e-08 0)
(2.51651e-06 -3.46777e-08 0)
(2.5498e-06 -3.68702e-08 0)
(2.32873e-06 -1.43464e-07 0)
(2.3394e-06 -1.05699e-07 0)
(2.34599e-06 -8.18538e-08 0)
(2.35588e-06 -6.79854e-08 0)
(2.36875e-06 -6.0557e-08 0)
(2.38599e-06 -5.74114e-08 0)
(2.40735e-06 -5.71801e-08 0)
(2.4328e-06 -5.88659e-08 0)
(2.46207e-06 -6.19439e-08 0)
(2.49467e-06 -6.56069e-08 0)
(2.27675e-06 -2.01899e-07 0)
(2.2779e-06 -1.51933e-07 0)
(2.27843e-06 -1.20466e-07 0)
(2.28432e-06 -1.02258e-07 0)
(2.29454e-06 -9.25345e-08 0)
(2.30994e-06 -8.8503e-08 0)
(2.32991e-06 -8.83644e-08 0)
(2.35427e-06 -9.07938e-08 0)
(2.38255e-06 -9.50563e-08 0)
(2.41417e-06 -1.00164e-07 0)
(2.20866e-06 -2.61244e-07 0)
(2.19805e-06 -2.0179e-07 0)
(2.19109e-06 -1.64401e-07 0)
(2.19203e-06 -1.42942e-07 0)
(2.19896e-06 -1.31605e-07 0)
(2.21205e-06 -1.2709e-07 0)
(2.2303e-06 -1.27225e-07 0)
(2.25328e-06 -1.3047e-07 0)
(2.28036e-06 -1.35897e-07 0)
(2.31081e-06 -1.42405e-07 0)
(2.12542e-06 -3.21577e-07 0)
(2.10152e-06 -2.55902e-07 0)
(2.08614e-06 -2.14612e-07 0)
(2.08149e-06 -1.91178e-07 0)
(2.08468e-06 -1.79004e-07 0)
(2.09513e-06 -1.74457e-07 0)
(2.11143e-06 -1.75087e-07 0)
(2.13284e-06 -1.7923e-07 0)
(2.15854e-06 -1.85816e-07 0)
(2.18766e-06 -1.93673e-07 0)
(2.0283e-06 -3.82744e-07 0)
(1.99032e-06 -3.14495e-07 0)
(1.96602e-06 -2.71568e-07 0)
(1.95547e-06 -2.47551e-07 0)
(1.95471e-06 -2.35379e-07 0)
(1.96235e-06 -2.31309e-07 0)
(1.97658e-06 -2.327e-07 0)
(1.9963e-06 -2.37807e-07 0)
(2.02052e-06 -2.45517e-07 0)
(2.04824e-06 -2.54626e-07 0)
(1.91855e-06 -4.4444e-07 0)
(1.86663e-06 -3.77389e-07 0)
(1.83353e-06 -3.35204e-07 0)
(1.81709e-06 -3.12117e-07 0)
(1.81242e-06 -3.00847e-07 0)
(1.81722e-06 -2.97802e-07 0)
(1.82932e-06 -3.00252e-07 0)
(1.84729e-06 -3.06453e-07 0)
(1.86994e-06 -3.15277e-07 0)
(1.89616e-06 -3.2557e-07 0)
(1.79758e-06 -5.06266e-07 0)
(1.7327e-06 -4.44061e-07 0)
(1.6914e-06 -4.04977e-07 0)
(1.66943e-06 -3.84291e-07 0)
(1.66103e-06 -3.74814e-07 0)
(1.66304e-06 -3.7331e-07 0)
(1.67297e-06 -3.77111e-07 0)
(1.68913e-06 -3.84522e-07 0)
(1.71019e-06 -3.94517e-07 0)
(1.73493e-06 -4.05776e-07 0)
(1.66684e-06 -5.67641e-07 0)
(1.59083e-06 -5.13664e-07 0)
(1.54247e-06 -4.79812e-07 0)
(1.51568e-06 -4.6291e-07 0)
(1.50394e-06 -4.56089e-07 0)
(1.50344e-06 -4.56653e-07 0)
(1.51143e-06 -4.62127e-07 0)
(1.52581e-06 -4.71048e-07 0)
(1.54535e-06 -4.82319e-07 0)
(1.56835e-06 -4.95212e-07 0)
(2.61493e-06 -1.25494e-08 0)
(2.65527e-06 -1.27484e-08 0)
(2.69815e-06 -1.29482e-08 0)
(2.74342e-06 -1.31006e-08 0)
(2.7908e-06 -1.32031e-08 0)
(2.84012e-06 -1.32481e-08 0)
(2.89115e-06 -1.31964e-08 0)
(2.94371e-06 -1.30631e-08 0)
(2.99766e-06 -1.28683e-08 0)
(3.05285e-06 -1.2598e-08 0)
(3.10909e-06 -1.22327e-08 0)
(3.16624e-06 -1.17627e-08 0)
(3.22413e-06 -1.11774e-08 0)
(3.28262e-06 -1.04708e-08 0)
(3.34155e-06 -9.6364e-09 0)
(3.40072e-06 -8.65976e-09 0)
(3.46001e-06 -7.5174e-09 0)
(3.51909e-06 -6.1805e-09 0)
(3.57798e-06 -4.61793e-09 0)
(3.63588e-06 -2.81669e-09 0)
(2.58807e-06 -3.88683e-08 0)
(2.63065e-06 -3.92812e-08 0)
(2.67553e-06 -3.97455e-08 0)
(2.72256e-06 -4.00959e-08 0)
(2.7715e-06 -4.02634e-08 0)
(2.82218e-06 -4.02694e-08 0)
(2.87445e-06 -4.00713e-08 0)
(2.92816e-06 -3.96737e-08 0)
(2.98316e-06 -3.90584e-08 0)
(3.03928e-06 -3.81845e-08 0)
(3.09638e-06 -3.70297e-08 0)
(3.15433e-06 -3.55871e-08 0)
(3.21299e-06 -3.38269e-08 0)
(3.2722e-06 -3.17128e-08 0)
(3.33182e-06 -2.92045e-08 0)
(3.39165e-06 -2.62579e-08 0)
(3.45157e-06 -2.28106e-08 0)
(3.51125e-06 -1.87904e-08 0)
(3.57073e-06 -1.40972e-08 0)
(3.62919e-06 -8.69352e-09 0)
(2.53534e-06 -6.85325e-08 0)
(2.58232e-06 -6.86741e-08 0)
(2.63112e-06 -6.895e-08 0)
(2.68152e-06 -6.91572e-08 0)
(2.7335e-06 -6.91407e-08 0)
(2.7869e-06 -6.89238e-08 0)
(2.84163e-06 -6.84026e-08 0)
(2.89753e-06 -6.75662e-08 0)
(2.95453e-06 -6.6381e-08 0)
(3.01248e-06 -6.48028e-08 0)
(3.07128e-06 -6.28009e-08 0)
(3.13081e-06 -6.03481e-08 0)
(3.19093e-06 -5.73796e-08 0)
(3.25151e-06 -5.38285e-08 0)
(3.31243e-06 -4.9631e-08 0)
(3.37351e-06 -4.47139e-08 0)
(3.43464e-06 -3.8969e-08 0)
(3.49551e-06 -3.22799e-08 0)
(3.55617e-06 -2.44679e-08 0)
(3.61582e-06 -1.54763e-08 0)
(2.45826e-06 -1.03423e-07 0)
(2.51153e-06 -1.0254e-07 0)
(2.566e-06 -1.01944e-07 0)
(2.62135e-06 -1.01471e-07 0)
(2.67779e-06 -1.00814e-07 0)
(2.73513e-06 -1.00006e-07 0)
(2.79343e-06 -9.88597e-08 0)
(2.85256e-06 -9.73622e-08 0)
(2.91253e-06 -9.54487e-08 0)
(2.9732e-06 -9.30437e-08 0)
(3.03452e-06 -9.00841e-08 0)
(3.09637e-06 -8.65173e-08 0)
(3.15866e-06 -8.22593e-08 0)
(3.22127e-06 -7.72246e-08 0)
(3.28412e-06 -7.13278e-08 0)
(3.34704e-06 -6.44483e-08 0)
(3.40995e-06 -5.64338e-08 0)
(3.47255e-06 -4.7114e-08 0)
(3.5349e-06 -3.62253e-08 0)
(3.59626e-06 -2.37117e-08 0)
(2.35919e-06 -1.45217e-07 0)
(2.42036e-06 -1.42311e-07 0)
(2.48203e-06 -1.39963e-07 0)
(2.54364e-06 -1.38138e-07 0)
(2.60575e-06 -1.3627e-07 0)
(2.66816e-06 -1.34415e-07 0)
(2.73105e-06 -1.32284e-07 0)
(2.79435e-06 -1.29837e-07 0)
(2.85812e-06 -1.26947e-07 0)
(2.92227e-06 -1.23504e-07 0)
(2.98681e-06 -1.19428e-07 0)
(3.05166e-06 -1.14637e-07 0)
(3.11677e-06 -1.09016e-07 0)
(3.18205e-06 -1.02448e-07 0)
(3.24742e-06 -9.48142e-08 0)
(3.31274e-06 -8.59517e-08 0)
(3.37796e-06 -7.5664e-08 0)
(3.44281e-06 -6.37338e-08 0)
(3.50737e-06 -4.98151e-08 0)
(3.57095e-06 -3.38466e-08 0)
(2.24087e-06 -1.95151e-07 0)
(2.31115e-06 -1.89059e-07 0)
(2.38127e-06 -1.83894e-07 0)
(2.45029e-06 -1.7989e-07 0)
(2.51916e-06 -1.76141e-07 0)
(2.58761e-06 -1.72691e-07 0)
(2.65597e-06 -1.69108e-07 0)
(2.72427e-06 -1.65326e-07 0)
(2.7926e-06 -1.61161e-07 0)
(2.86096e-06 -1.56459e-07 0)
(2.9294e-06 -1.51101e-07 0)
(2.99788e-06 -1.44967e-07 0)
(3.06638e-06 -1.37897e-07 0)
(3.13484e-06 -1.29742e-07 0)
(3.20323e-06 -1.2034e-07 0)
(3.27143e-06 -1.09493e-07 0)
(3.33944e-06 -9.695e-08 0)
(3.40697e-06 -8.24566e-08 0)
(3.47421e-06 -6.55911e-08 0)
(3.54045e-06 -4.62455e-08 0)
(2.10664e-06 -2.5391e-07 0)
(2.18684e-06 -2.43482e-07 0)
(2.26629e-06 -2.34462e-07 0)
(2.34355e-06 -2.27387e-07 0)
(2.41994e-06 -2.21019e-07 0)
(2.4952e-06 -2.15342e-07 0)
(2.56976e-06 -2.0983e-07 0)
(2.64373e-06 -2.04315e-07 0)
(2.71727e-06 -1.98557e-07 0)
(2.79045e-06 -1.92348e-07 0)
(2.86336e-06 -1.8551e-07 0)
(2.936e-06 -1.7787e-07 0)
(3.00838e-06 -1.69229e-07 0)
(3.08051e-06 -1.59405e-07 0)
(3.15239e-06 -1.48191e-07 0)
(3.22391e-06 -1.35352e-07 0)
(3.29513e-06 -1.20576e-07 0)
(3.36578e-06 -1.03566e-07 0)
(3.43607e-06 -8.38338e-08 0)
(3.50536e-06 -6.12192e-08 0)
(1.95973e-06 -3.21729e-07 0)
(2.05017e-06 -3.05615e-07 0)
(2.13946e-06 -2.91639e-07 0)
(2.22557e-06 -2.80488e-07 0)
(2.31012e-06 -2.70761e-07 0)
(2.39279e-06 -2.62203e-07 0)
(2.4742e-06 -2.5426e-07 0)
(2.55442e-06 -2.46614e-07 0)
(2.63373e-06 -2.38948e-07 0)
(2.71223e-06 -2.30985e-07 0)
(2.79007e-06 -2.22482e-07 0)
(2.8673e-06 -2.13204e-07 0)
(2.944e-06 -2.02911e-07 0)
(3.0202e-06 -1.91376e-07 0)
(3.09595e-06 -1.78345e-07 0)
(3.17118e-06 -1.63534e-07 0)
(3.24594e-06 -1.46582e-07 0)
(3.32006e-06 -1.27132e-07 0)
(3.39372e-06 -1.0464e-07 0)
(3.46639e-06 -7.88943e-08 0)
(1.80367e-06 -3.98435e-07 0)
(1.90437e-06 -3.75634e-07 0)
(2.00354e-06 -3.56063e-07 0)
(2.09879e-06 -3.39967e-07 0)
(2.19177e-06 -3.26166e-07 0)
(2.28226e-06 -3.14082e-07 0)
(2.37086e-06 -3.03151e-07 0)
(2.45775e-06 -2.92899e-07 0)
(2.5432e-06 -2.82938e-07 0)
(2.62743e-06 -2.72904e-07 0)
(2.71058e-06 -2.62481e-07 0)
(2.79278e-06 -2.51375e-07 0)
(2.87416e-06 -2.39293e-07 0)
(2.9548e-06 -2.25959e-07 0)
(3.03474e-06 -2.11062e-07 0)
(3.11399e-06 -1.9426e-07 0)
(3.19261e-06 -1.75149e-07 0)
(3.27047e-06 -1.53312e-07 0)
(3.34781e-06 -1.28168e-07 0)
(3.42416e-06 -9.94494e-08 0)
(1.64152e-06 -4.82773e-07 0)
(1.75293e-06 -4.51293e-07 0)
(1.86174e-06 -4.25318e-07 0)
(1.96644e-06 -4.03509e-07 0)
(2.06797e-06 -3.85059e-07 0)
(2.16656e-06 -3.6901e-07 0)
(2.26259e-06 -3.5472e-07 0)
(2.35639e-06 -3.41584e-07 0)
(2.44826e-06 -3.29119e-07 0)
(2.53843e-06 -3.16868e-07 0)
(2.62713e-06 -3.04436e-07 0)
(2.71453e-06 -2.91459e-07 0)
(2.80078e-06 -2.77585e-07 0)
(2.88601e-06 -2.62479e-07 0)
(2.97032e-06 -2.45773e-07 0)
(3.05373e-06 -2.2707e-07 0)
(3.13636e-06 -2.05932e-07 0)
(3.21814e-06 -1.81861e-07 0)
(3.29932e-06 -1.54252e-07 0)
(3.37957e-06 -1.22758e-07 0)
(1.52023e-06 -5.64972e-07 0)
(1.63904e-06 -5.26098e-07 0)
(1.75381e-06 -4.95097e-07 0)
(1.86464e-06 -4.68477e-07 0)
(1.97184e-06 -4.45746e-07 0)
(2.07579e-06 -4.25866e-07 0)
(2.17682e-06 -4.08128e-07 0)
(2.2753e-06 -3.91898e-07 0)
(2.37151e-06 -3.76632e-07 0)
(2.46571e-06 -3.61825e-07 0)
(2.55814e-06 -3.4704e-07 0)
(2.64901e-06 -3.31876e-07 0)
(2.73849e-06 -3.15936e-07 0)
(2.82672e-06 -2.98849e-07 0)
(2.91381e-06 -2.80214e-07 0)
(2.99987e-06 -2.59592e-07 0)
(3.085e-06 -2.36547e-07 0)
(3.16923e-06 -2.10528e-07 0)
(3.25282e-06 -1.80924e-07 0)
(3.33554e-06 -1.47346e-07 0)
(1.45154e-06 -6.32238e-07 0)
(1.57136e-06 -5.9189e-07 0)
(1.68717e-06 -5.58071e-07 0)
(1.79964e-06 -5.28501e-07 0)
(1.90871e-06 -5.02713e-07 0)
(2.01463e-06 -4.79846e-07 0)
(2.11768e-06 -4.59232e-07 0)
(2.2181e-06 -4.40268e-07 0)
(2.31616e-06 -4.22404e-07 0)
(2.41208e-06 -4.05142e-07 0)
(2.50609e-06 -3.88047e-07 0)
(2.5984e-06 -3.70703e-07 0)
(2.68918e-06 -3.52703e-07 0)
(2.77857e-06 -3.33668e-07 0)
(2.8667e-06 -3.13188e-07 0)
(2.9537e-06 -2.90816e-07 0)
(3.0397e-06 -2.66143e-07 0)
(3.12477e-06 -2.3861e-07 0)
(3.20916e-06 -2.07622e-07 0)
(3.29275e-06 -1.72797e-07 0)
(1.3934e-06 -6.96481e-07 0)
(1.51206e-06 -6.55292e-07 0)
(1.6278e-06 -6.19731e-07 0)
(1.74065e-06 -5.87995e-07 0)
(1.85051e-06 -5.59747e-07 0)
(1.95747e-06 -5.34305e-07 0)
(2.06169e-06 -5.11098e-07 0)
(2.16335e-06 -4.89578e-07 0)
(2.26264e-06 -4.69231e-07 0)
(2.35977e-06 -4.49588e-07 0)
(2.45493e-06 -4.30227e-07 0)
(2.54832e-06 -4.10732e-07 0)
(2.64008e-06 -3.90695e-07 0)
(2.73039e-06 -3.6974e-07 0)
(2.81935e-06 -3.47462e-07 0)
(2.90714e-06 -3.23416e-07 0)
(2.99387e-06 -2.9721e-07 0)
(3.07968e-06 -2.6831e-07 0)
(3.1648e-06 -2.36136e-07 0)
(3.2492e-06 -2.00343e-07 0)
(1.34227e-06 -7.5859e-07 0)
(1.45931e-06 -7.1706e-07 0)
(1.57412e-06 -6.80207e-07 0)
(1.68654e-06 -6.46683e-07 0)
(1.79637e-06 -6.16314e-07 0)
(1.90363e-06 -5.88584e-07 0)
(2.00837e-06 -5.63018e-07 0)
(2.11068e-06 -5.39127e-07 0)
(2.21073e-06 -5.16448e-07 0)
(2.30865e-06 -4.94547e-07 0)
(2.40462e-06 -4.73024e-07 0)
(2.49879e-06 -4.51469e-07 0)
(2.59131e-06 -4.29482e-07 0)
(2.68234e-06 -4.06702e-07 0)
(2.772e-06 -3.82727e-07 0)
(2.86045e-06 -3.57135e-07 0)
(2.94784e-06 -3.29542e-07 0)
(3.03431e-06 -2.99451e-07 0)
(3.12009e-06 -2.66318e-07 0)
(3.20526e-06 -2.29846e-07 0)
(1.29741e-06 -8.18001e-07 0)
(1.41235e-06 -7.76497e-07 0)
(1.52568e-06 -7.38865e-07 0)
(1.63704e-06 -7.04052e-07 0)
(1.74626e-06 -6.72007e-07 0)
(1.85324e-06 -6.42367e-07 0)
(1.95795e-06 -6.14741e-07 0)
(2.06044e-06 -5.88724e-07 0)
(2.1608e-06 -5.63908e-07 0)
(2.25914e-06 -5.39909e-07 0)
(2.35558e-06 -5.16353e-07 0)
(2.45027e-06 -4.92849e-07 0)
(2.54332e-06 -4.69013e-07 0)
(2.63488e-06 -4.44511e-07 0)
(2.72507e-06 -4.18944e-07 0)
(2.81407e-06 -3.91928e-07 0)
(2.90201e-06 -3.63084e-07 0)
(2.98906e-06 -3.31959e-07 0)
(3.07543e-06 -2.98066e-07 0)
(3.16133e-06 -2.61157e-07 0)
(1.25764e-06 -8.74961e-07 0)
(1.37028e-06 -8.33727e-07 0)
(1.48181e-06 -7.95636e-07 0)
(1.59172e-06 -7.59876e-07 0)
(1.6999e-06 -7.26503e-07 0)
(1.80614e-06 -6.95264e-07 0)
(1.9104e-06 -6.65859e-07 0)
(2.01266e-06 -6.37966e-07 0)
(2.11297e-06 -6.11231e-07 0)
(2.2114e-06 -5.85319e-07 0)
(2.30803e-06 -5.59892e-07 0)
(2.40297e-06 -5.34582e-07 0)
(2.49634e-06 -5.09033e-07 0)
(2.58825e-06 -4.8294e-07 0)
(2.67883e-06 -4.55909e-07 0)
(2.76824e-06 -4.27608e-07 0)
(2.85663e-06 -3.97665e-07 0)
(2.94418e-06 -3.65673e-07 0)
(3.0311e-06 -3.31214e-07 0)
(3.11762e-06 -2.9407e-07 0)
(1.22215e-06 -9.29518e-07 0)
(1.33238e-06 -8.88726e-07 0)
(1.4419e-06 -8.50439e-07 0)
(1.5501e-06 -8.14031e-07 0)
(1.65693e-06 -7.79643e-07 0)
(1.76211e-06 -7.47098e-07 0)
(1.86559e-06 -7.16194e-07 0)
(1.96731e-06 -6.86675e-07 0)
(2.06727e-06 -6.58244e-07 0)
(2.16551e-06 -6.30613e-07 0)
(2.26207e-06 -6.03488e-07 0)
(2.35705e-06 -5.76528e-07 0)
(2.45053e-06 -5.49411e-07 0)
(2.54263e-06 -5.21868e-07 0)
(2.63346e-06 -4.93511e-07 0)
(2.72317e-06 -4.64061e-07 0)
(2.81191e-06 -4.33164e-07 0)
(2.89987e-06 -4.00465e-07 0)
(2.98727e-06 -3.65605e-07 0)
(3.07432e-06 -3.28389e-07 0)
(1.19017e-06 -9.81836e-07 0)
(1.298e-06 -9.41588e-07 0)
(1.40537e-06 -9.03286e-07 0)
(1.51173e-06 -8.66461e-07 0)
(1.61698e-06 -8.31301e-07 0)
(1.72087e-06 -7.97706e-07 0)
(1.82333e-06 -7.65554e-07 0)
(1.92425e-06 -7.34647e-07 0)
(2.02361e-06 -7.04736e-07 0)
(2.12143e-06 -6.75586e-07 0)
(2.21772e-06 -6.46946e-07 0)
(2.31254e-06 -6.18506e-07 0)
(2.40598e-06 -5.8998e-07 0)
(2.49813e-06 -5.61135e-07 0)
(2.58909e-06 -5.31601e-07 0)
(2.67901e-06 -5.01144e-07 0)
(2.76801e-06 -4.6944e-07 0)
(2.85631e-06 -4.36184e-07 0)
(2.9441e-06 -4.01064e-07 0)
(3.0316e-06 -3.63919e-07 0)
(1.16104e-06 -1.03208e-06 0)
(1.26648e-06 -9.92424e-07 0)
(1.37167e-06 -9.54234e-07 0)
(1.47608e-06 -9.17166e-07 0)
(1.57964e-06 -8.81435e-07 0)
(1.68209e-06 -8.47015e-07 0)
(1.78335e-06 -8.13841e-07 0)
(1.88329e-06 -7.81764e-07 0)
(1.98188e-06 -7.50582e-07 0)
(2.07909e-06 -7.20112e-07 0)
(2.17496e-06 -6.90143e-07 0)
(2.26949e-06 -6.60397e-07 0)
(2.36276e-06 -6.30627e-07 0)
(2.45484e-06 -6.00631e-07 0)
(2.54584e-06 -5.70068e-07 0)
(2.63588e-06 -5.38744e-07 0)
(2.72508e-06 -5.06374e-07 0)
(2.81366e-06 -4.72687e-07 0)
(2.90175e-06 -4.37428e-07 0)
(2.98965e-06 -4.0048e-07 0)
(1.13416e-06 -1.0804e-06 0)
(1.23724e-06 -1.04136e-06 0)
(1.34028e-06 -1.00337e-06 0)
(1.44271e-06 -9.66184e-07 0)
(1.54453e-06 -9.30052e-07 0)
(1.64545e-06 -8.94995e-07 0)
(1.7454e-06 -8.60995e-07 0)
(1.84425e-06 -8.27945e-07 0)
(1.94194e-06 -7.9569e-07 0)
(2.03844e-06 -7.64091e-07 0)
(2.13375e-06 -7.32974e-07 0)
(2.22788e-06 -7.02094e-07 0)
(2.32088e-06 -6.71241e-07 0)
(2.41281e-06 -6.40247e-07 0)
(2.50376e-06 -6.088e-07 0)
(2.59385e-06 -5.76747e-07 0)
(2.68318e-06 -5.43838e-07 0)
(2.77195e-06 -5.09834e-07 0)
(2.86028e-06 -4.74545e-07 0)
(2.94851e-06 -4.37896e-07 0)
(1.10899e-06 -1.12698e-06 0)
(1.20981e-06 -1.08855e-06 0)
(1.31072e-06 -1.0508e-06 0)
(1.41121e-06 -1.0136e-06 0)
(1.51127e-06 -9.77203e-07 0)
(1.61064e-06 -9.41664e-07 0)
(1.70922e-06 -9.07007e-07 0)
(1.80691e-06 -8.7316e-07 0)
(1.90362e-06 -8.4001e-07 0)
(1.99932e-06 -8.07459e-07 0)
(2.09399e-06 -7.75368e-07 0)
(2.18764e-06 -7.43518e-07 0)
(2.2803e-06 -7.1174e-07 0)
(2.37201e-06 -6.79892e-07 0)
(2.46284e-06 -6.477e-07 0)
(2.55292e-06 -6.15043e-07 0)
(2.64232e-06 -5.81706e-07 0)
(2.7312e-06 -5.47488e-07 0)
(2.81974e-06 -5.12265e-07 0)
(2.90819e-06 -4.75985e-07 0)
(1.08508e-06 -1.17197e-06 0)
(1.18374e-06 -1.13412e-06 0)
(1.28259e-06 -1.09665e-06 0)
(1.38119e-06 -1.05951e-06 0)
(1.47952e-06 -1.02295e-06 0)
(1.57733e-06 -9.87054e-07 0)
(1.67453e-06 -9.51884e-07 0)
(1.77102e-06 -9.17396e-07 0)
(1.86671e-06 -8.83516e-07 0)
(1.96157e-06 -8.50176e-07 0)
(2.05557e-06 -8.17269e-07 0)
(2.14869e-06 -7.84606e-07 0)
(2.24096e-06 -7.52049e-07 0)
(2.33241e-06 -7.19489e-07 0)
(2.42309e-06 -6.86679e-07 0)
(2.51311e-06 -6.53533e-07 0)
(2.60252e-06 -6.19866e-07 0)
(2.69148e-06 -5.8553e-07 0)
(2.78018e-06 -5.50447e-07 0)
(2.86879e-06 -5.14567e-07 0)
(1.06203e-06 -1.21551e-06 0)
(1.15863e-06 -1.17821e-06 0)
(1.25551e-06 -1.14104e-06 0)
(1.35228e-06 -1.104e-06 0)
(1.44891e-06 -1.06736e-06 0)
(1.54519e-06 -1.03121e-06 0)
(1.64103e-06 -9.95655e-07 0)
(1.73634e-06 -9.6067e-07 0)
(1.83103e-06 -9.26209e-07 0)
(1.92505e-06 -8.92232e-07 0)
(2.01836e-06 -8.58661e-07 0)
(2.11094e-06 -8.25332e-07 0)
(2.2028e-06 -7.92136e-07 0)
(2.29396e-06 -7.58992e-07 0)
(2.38446e-06 -7.2568e-07 0)
(2.47437e-06 -6.92143e-07 0)
(2.56375e-06 -6.58236e-07 0)
(2.65278e-06 -6.23859e-07 0)
(2.74153e-06 -5.88965e-07 0)
(2.83028e-06 -5.53519e-07 0)
(1.03946e-06 -1.25773e-06 0)
(1.1341e-06 -1.22095e-06 0)
(1.2291e-06 -1.18408e-06 0)
(1.32412e-06 -1.14718e-06 0)
(1.41913e-06 -1.11052e-06 0)
(1.51394e-06 -1.07421e-06 0)
(1.60849e-06 -1.03838e-06 0)
(1.70265e-06 -1.00303e-06 0)
(1.79637e-06 -9.68121e-07 0)
(1.88956e-06 -9.33642e-07 0)
(1.98219e-06 -8.99538e-07 0)
(2.07423e-06 -8.65669e-07 0)
(2.16568e-06 -8.31954e-07 0)
(2.25654e-06 -7.98337e-07 0)
(2.34683e-06 -7.64622e-07 0)
(2.43662e-06 -7.30782e-07 0)
(2.52594e-06 -6.96718e-07 0)
(2.61498e-06 -6.62354e-07 0)
(2.70376e-06 -6.27679e-07 0)
(2.79259e-06 -5.92715e-07 0)
(1.01697e-06 -1.29876e-06 0)
(1.10975e-06 -1.26245e-06 0)
(1.20297e-06 -1.22588e-06 0)
(1.29633e-06 -1.18915e-06 0)
(1.38983e-06 -1.15252e-06 0)
(1.48327e-06 -1.11614e-06 0)
(1.57661e-06 -1.08014e-06 0)
(1.66969e-06 -1.04452e-06 0)
(1.76249e-06 -1.00928e-06 0)
(1.85491e-06 -9.74419e-07 0)
(1.94691e-06 -9.39907e-07 0)
(2.03845e-06 -9.05622e-07 0)
(2.12952e-06 -8.71502e-07 0)
(2.22009e-06 -8.37512e-07 0)
(2.31018e-06 -8.0348e-07 0)
(2.39984e-06 -7.69412e-07 0)
(2.48913e-06 -7.35248e-07 0)
(2.57813e-06 -7.00942e-07 0)
(2.66695e-06 -6.66521e-07 0)
(2.75579e-06 -6.3203e-07 0)
(9.94173e-07 -1.33869e-06 0)
(1.0852e-06 -1.30286e-06 0)
(1.17674e-06 -1.26654e-06 0)
(1.26858e-06 -1.23001e-06 0)
(1.36069e-06 -1.19349e-06 0)
(1.45288e-06 -1.15711e-06 0)
(1.54511e-06 -1.12101e-06 0)
(1.63723e-06 -1.08523e-06 0)
(1.7292e-06 -1.04976e-06 0)
(1.82092e-06 -1.01463e-06 0)
(1.91234e-06 -9.79816e-07 0)
(2.00342e-06 -9.45219e-07 0)
(2.09414e-06 -9.10788e-07 0)
(2.18445e-06 -8.76501e-07 0)
(2.27436e-06 -8.4222e-07 0)
(2.36392e-06 -8.07991e-07 0)
(2.45316e-06 -7.73774e-07 0)
(2.54213e-06 -7.39545e-07 0)
(2.63095e-06 -7.0539e-07 0)
(2.71979e-06 -6.71366e-07 0)
(9.70674e-07 -1.37768e-06 0)
(1.06001e-06 -1.3422e-06 0)
(1.14997e-06 -1.30621e-06 0)
(1.2405e-06 -1.26993e-06 0)
(1.33135e-06 -1.23355e-06 0)
(1.42245e-06 -1.19723e-06 0)
(1.51369e-06 -1.16111e-06 0)
(1.60498e-06 -1.12524e-06 0)
(1.69623e-06 -1.08963e-06 0)
(1.78735e-06 -1.05432e-06 0)
(1.8783e-06 -1.01931e-06 0)
(1.969e-06 -9.84484e-07 0)
(2.05942e-06 -9.49813e-07 0)
(2.14953e-06 -9.15307e-07 0)
(2.23931e-06 -8.80854e-07 0)
(2.32882e-06 -8.46505e-07 0)
(2.418e-06 -8.12241e-07 0)
(2.50698e-06 -7.78095e-07 0)
(2.59576e-06 -7.442e-07 0)
(2.6846e-06 -7.10625e-07 0)
(9.45936e-07 -1.4157e-06 0)
(1.03384e-06 -1.38061e-06 0)
(1.12251e-06 -1.34501e-06 0)
(1.21178e-06 -1.309e-06 0)
(1.30156e-06 -1.2728e-06 0)
(1.39172e-06 -1.2366e-06 0)
(1.48215e-06 -1.20052e-06 0)
(1.57275e-06 -1.16465e-06 0)
(1.66342e-06 -1.129e-06 0)
(1.75408e-06 -1.0936e-06 0)
(1.84465e-06 -1.05845e-06 0)
(1.93506e-06 -1.02347e-06 0)
(2.02526e-06 -9.88638e-07 0)
(2.11524e-06 -9.53977e-07 0)
(2.20497e-06 -9.19397e-07 0)
(2.29444e-06 -8.84952e-07 0)
(2.38362e-06 -8.50644e-07 0)
(2.47266e-06 -8.16564e-07 0)
(2.56145e-06 -7.82908e-07 0)
(2.65023e-06 -7.49765e-07 0)
(9.19603e-07 -1.45312e-06 0)
(1.00618e-06 -1.41845e-06 0)
(1.09371e-06 -1.38316e-06 0)
(1.18197e-06 -1.34744e-06 0)
(1.27089e-06 -1.31146e-06 0)
(1.36032e-06 -1.27541e-06 0)
(1.45015e-06 -1.23944e-06 0)
(1.54026e-06 -1.20363e-06 0)
(1.63053e-06 -1.16799e-06 0)
(1.72087e-06 -1.13255e-06 0)
(1.81119e-06 -1.09732e-06 0)
(1.90143e-06 -1.06225e-06 0)
(1.99154e-06 -1.02732e-06 0)
(2.08145e-06 -9.92563e-07 0)
(2.17117e-06 -9.57858e-07 0)
(2.26069e-06 -9.23306e-07 0)
(2.34998e-06 -8.88991e-07 0)
(2.43908e-06 -8.54939e-07 0)
(2.52797e-06 -8.21413e-07 0)
(2.61675e-06 -7.88643e-07 0)
(8.91372e-07 -1.48969e-06 0)
(9.76837e-07 -1.4555e-06 0)
(1.06341e-06 -1.42063e-06 0)
(1.15091e-06 -1.38525e-06 0)
(1.23921e-06 -1.34956e-06 0)
(1.32816e-06 -1.31374e-06 0)
(1.41763e-06 -1.27796e-06 0)
(1.50747e-06 -1.24227e-06 0)
(1.59754e-06 -1.20667e-06 0)
(1.68775e-06 -1.17124e-06 0)
(1.77798e-06 -1.13602e-06 0)
(1.86816e-06 -1.10092e-06 0)
(1.95824e-06 -1.0659e-06 0)
(2.04819e-06 -1.03106e-06 0)
(2.13795e-06 -9.96312e-07 0)
(2.22757e-06 -9.61685e-07 0)
(2.31705e-06 -9.2731e-07 0)
(2.40632e-06 -8.93217e-07 0)
(2.49546e-06 -8.59731e-07 0)
(2.58437e-06 -8.27194e-07 0)
(6.37198e-08 -1.25722e-06 0)
(1.91975e-07 -1.2388e-06 0)
(3.22614e-07 -1.20265e-06 0)
(4.57033e-07 -1.15029e-06 0)
(5.96285e-07 -1.08373e-06 0)
(7.41035e-07 -1.00544e-06 0)
(8.91511e-07 -9.18374e-07 0)
(1.04741e-06 -8.25432e-07 0)
(1.20837e-06 -7.29646e-07 0)
(1.37298e-06 -6.33328e-07 0)
(6.19888e-08 -1.2788e-06 0)
(1.86666e-07 -1.26195e-06 0)
(3.13302e-07 -1.22888e-06 0)
(4.43084e-07 -1.18086e-06 0)
(5.769e-07 -1.11962e-06 0)
(7.15287e-07 -1.04726e-06 0)
(8.58495e-07 -9.66252e-07 0)
(1.00608e-06 -8.79188e-07 0)
(1.15763e-06 -7.8874e-07 0)
(1.31162e-06 -6.97282e-07 0)
(6.04364e-08 -1.30085e-06 0)
(1.81891e-07 -1.28544e-06 0)
(3.04943e-07 -1.25514e-06 0)
(4.30515e-07 -1.21108e-06 0)
(5.59389e-07 -1.15476e-06 0)
(6.91963e-07 -1.088e-06 0)
(8.28523e-07 -1.01293e-06 0)
(9.68776e-07 -9.31768e-07 0)
(1.11249e-06 -8.46746e-07 0)
(1.25847e-06 -7.59773e-07 0)
(5.90694e-08 -1.32342e-06 0)
(1.77665e-07 -1.30923e-06 0)
(2.9762e-07 -1.28131e-06 0)
(4.19618e-07 -1.24064e-06 0)
(5.44345e-07 -1.18857e-06 0)
(6.72089e-07 -1.12669e-06 0)
(8.03076e-07 -1.05685e-06 0)
(9.37022e-07 -9.81078e-07 0)
(1.07371e-06 -9.01401e-07 0)
(1.21216e-06 -8.19508e-07 0)
(5.78228e-08 -1.34652e-06 0)
(1.73794e-07 -1.33341e-06 0)
(2.9091e-07 -1.30764e-06 0)
(4.09684e-07 -1.27004e-06 0)
(5.30701e-07 -1.22181e-06 0)
(6.54184e-07 -1.1644e-06 0)
(7.80332e-07 -1.09945e-06 0)
(9.08905e-07 -1.02865e-06 0)
(1.03972e-06 -9.53892e-07 0)
(1.17179e-06 -8.76713e-07 0)
(5.66503e-08 -1.37011e-06 0)
(1.70232e-07 -1.35794e-06 0)
(2.84753e-07 -1.33403e-06 0)
(4.00655e-07 -1.29913e-06 0)
(5.18406e-07 -1.25429e-06 0)
(6.38189e-07 -1.20085e-06 0)
(7.60112e-07 -1.14028e-06 0)
(8.8397e-07 -1.07408e-06 0)
(1.00966e-06 -1.00397e-06 0)
(1.13618e-06 -9.31424e-07 0)
(5.55324e-08 -1.39415e-06 0)
(1.66858e-07 -1.38285e-06 0)
(2.78957e-07 -1.36059e-06 0)
(3.92226e-07 -1.32812e-06 0)
(5.07007e-07 -1.28634e-06 0)
(6.23492e-07 -1.23647e-06 0)
(7.41732e-07 -1.17988e-06 0)
(8.61505e-07 -1.11788e-06 0)
(9.82782e-07 -1.05202e-06 0)
(1.10453e-06 -9.83783e-07 0)
(5.44827e-08 -1.41863e-06 0)
(1.63636e-07 -1.40809e-06 0)
(2.73456e-07 -1.3873e-06 0)
(3.84278e-07 -1.35699e-06 0)
(4.96357e-07 -1.31793e-06 0)
(6.09857e-07 -1.27128e-06 0)
(7.24817e-07 -1.21828e-06 0)
(8.40998e-07 -1.16013e-06 0)
(9.58429e-07 -1.0982e-06 0)
(1.07607e-06 -1.03397e-06 0)
(5.34589e-08 -1.44351e-06 0)
(1.60505e-07 -1.43364e-06 0)
(2.68147e-07 -1.41418e-06 0)
(3.76642e-07 -1.3858e-06 0)
(4.86216e-07 -1.34921e-06 0)
(5.97001e-07 -1.30545e-06 0)
(7.09002e-07 -1.25571e-06 0)
(8.22001e-07 -1.20105e-06 0)
(9.36054e-07 -1.14272e-06 0)
(1.05016e-06 -1.08218e-06 0)
(5.24284e-08 -1.46872e-06 0)
(1.57428e-07 -1.45947e-06 0)
(2.62953e-07 -1.4412e-06 0)
(3.6922e-07 -1.41455e-06 0)
(4.76421e-07 -1.3802e-06 0)
(5.8469e-07 -1.33906e-06 0)
(6.93994e-07 -1.29225e-06 0)
(8.04133e-07 -1.24078e-06 0)
(9.15186e-07 -1.18575e-06 0)
(1.0262e-06 -1.12858e-06 0)
(5.13947e-08 -1.49422e-06 0)
(1.54375e-07 -1.48555e-06 0)
(2.57798e-07 -1.46836e-06 0)
(3.61903e-07 -1.44327e-06 0)
(4.66824e-07 -1.41093e-06 0)
(5.72715e-07 -1.37217e-06 0)
(6.7953e-07 -1.32802e-06 0)
(7.8707e-07 -1.27947e-06 0)
(8.95426e-07 -1.22746e-06 0)
(1.0037e-06 -1.17337e-06 0)
(5.03673e-08 -1.51997e-06 0)
(1.5131e-07 -1.51183e-06 0)
(2.52618e-07 -1.49561e-06 0)
(3.54591e-07 -1.47193e-06 0)
(4.57299e-07 -1.44143e-06 0)
(5.60906e-07 -1.40483e-06 0)
(6.65382e-07 -1.36311e-06 0)
(7.70525e-07 -1.3172e-06 0)
(8.7642e-07 -1.26796e-06 0)
(9.82261e-07 -1.21669e-06 0)
(4.93292e-08 -1.54593e-06 0)
(1.48175e-07 -1.53825e-06 0)
(2.4734e-07 -1.52293e-06 0)
(3.4717e-07 -1.50054e-06 0)
(4.477e-07 -1.4717e-06 0)
(5.49084e-07 -1.43708e-06 0)
(6.51324e-07 -1.39758e-06 0)
(7.54219e-07 -1.35408e-06 0)
(8.57845e-07 -1.30738e-06 0)
(9.61504e-07 -1.25868e-06 0)
(4.82493e-08 -1.57201e-06 0)
(1.4491e-07 -1.56474e-06 0)
(2.41887e-07 -1.55024e-06 0)
(3.39529e-07 -1.52904e-06 0)
(4.37877e-07 -1.50173e-06 0)
(5.3707e-07 -1.46892e-06 0)
(6.37135e-07 -1.43146e-06 0)
(7.37887e-07 -1.39018e-06 0)
(8.394e-07 -1.34581e-06 0)
(9.41062e-07 -1.29948e-06 0)
(4.71059e-08 -1.59815e-06 0)
(1.41476e-07 -1.59125e-06 0)
(2.36187e-07 -1.57752e-06 0)
(3.31567e-07 -1.55742e-06 0)
(4.27691e-07 -1.53151e-06 0)
(5.24683e-07 -1.50038e-06 0)
(6.22589e-07 -1.4648e-06 0)
(7.21266e-07 -1.42558e-06 0)
(8.2076e-07 -1.38337e-06 0)
(9.20538e-07 -1.3392e-06 0)
(4.58908e-08 -1.62422e-06 0)
(1.37845e-07 -1.61765e-06 0)
(2.30174e-07 -1.60466e-06 0)
(3.23185e-07 -1.58558e-06 0)
(4.16999e-07 -1.56098e-06 0)
(5.11738e-07 -1.53141e-06 0)
(6.07465e-07 -1.49759e-06 0)
(7.0409e-07 -1.46027e-06 0)
(8.016e-07 -1.42007e-06 0)
(8.99591e-07 -1.3779e-06 0)
(4.45951e-08 -1.65018e-06 0)
(1.3397e-07 -1.64395e-06 0)
(2.23753e-07 -1.63163e-06 0)
(3.14248e-07 -1.61352e-06 0)
(4.05631e-07 -1.59015e-06 0)
(4.98021e-07 -1.56205e-06 0)
(5.91513e-07 -1.5299e-06 0)
(6.86033e-07 -1.49437e-06 0)
(7.81575e-07 -1.45603e-06 0)
(8.77801e-07 -1.41575e-06 0)
(4.31983e-08 -1.67582e-06 0)
(1.29782e-07 -1.6699e-06 0)
(2.16814e-07 -1.65822e-06 0)
(3.04607e-07 -1.64105e-06 0)
(3.93384e-07 -1.61886e-06 0)
(4.83291e-07 -1.59216e-06 0)
(5.74441e-07 -1.56158e-06 0)
(6.66762e-07 -1.52774e-06 0)
(7.60312e-07 -1.49118e-06 0)
(8.54771e-07 -1.45269e-06 0)
(4.16647e-08 -1.70121e-06 0)
(1.25178e-07 -1.6956e-06 0)
(2.09197e-07 -1.68454e-06 0)
(2.94057e-07 -1.66827e-06 0)
(3.8001e-07 -1.64723e-06 0)
(4.67243e-07 -1.62189e-06 0)
(5.55882e-07 -1.59282e-06 0)
(6.45906e-07 -1.56062e-06 0)
(7.37359e-07 -1.52578e-06 0)
(8.30027e-07 -1.48902e-06 0)
(3.99797e-08 -1.72573e-06 0)
(1.20134e-07 -1.72043e-06 0)
(2.00851e-07 -1.70999e-06 0)
(2.82501e-07 -1.69462e-06 0)
(3.65383e-07 -1.67474e-06 0)
(4.49725e-07 -1.65076e-06 0)
(5.35657e-07 -1.6232e-06 0)
(6.23272e-07 -1.59261e-06 0)
(7.12528e-07 -1.55949e-06 0)
(8.0337e-07 -1.52447e-06 0)
)


// ************************************************************************* //
