/*--------------------------------*- C++ -*----------------------------------*\
| =========                 |                                                 |
| \\      /  F ield         | foam-extend: Open Source CFD                    |
|  \\    /   O peration     | Version:     4.1                                |
|   \\  /    A nd           | Web:         http://www.foam-extend.org         |
|    \\/     M anipulation  |                                                 |
\*---------------------------------------------------------------------------*/
FoamFile
{
    version     2.0;
    format      ascii;
    class       volVectorField;
    location    "1";
    object      D_predicted;
}
// * * * * * * * * * * * * * * * * * * * * * * * * * * * * * * * * * * * * * //

dimensions      [0 1 0 0 0 0 0];

internalField   nonuniform List<vector> 
100000
(
(5.70428e-07 -2.37054e-07 -0.000626307)
(5.6852e-07 -2.33868e-07 0.00328178)
(5.65686e-07 -2.30484e-07 0.00488693)
(5.60986e-07 -2.27039e-07 0.00646142)
(5.56708e-07 -2.23758e-07 0.00701806)
(5.53323e-07 -2.20866e-07 0.00585189)
(5.5015e-07 -2.1837e-07 0.00459)
(5.46964e-07 -2.16359e-07 0.00252465)
(5.44198e-07 -2.14374e-07 0.00152373)
(5.40924e-07 -2.12285e-07 -0.000178216)
(5.3776e-07 -2.10209e-07 -0.00135312)
(5.34678e-07 -2.08097e-07 -0.00169489)
(5.31734e-07 -2.06311e-07 -0.00130506)
(5.28925e-07 -2.04616e-07 -0.000917621)
(5.26317e-07 -2.02982e-07 -0.000495782)
(5.23846e-07 -2.01376e-07 -0.000205666)
(5.21492e-07 -1.99847e-07 1.81181e-05)
(5.19296e-07 -1.98401e-07 0.000124316)
(5.17238e-07 -1.97029e-07 0.000184285)
(5.15272e-07 -1.95731e-07 0.00024445)
(5.13393e-07 -1.94503e-07 0.000304206)
(5.11557e-07 -1.93338e-07 0.000464254)
(5.09781e-07 -1.92236e-07 0.000679067)
(5.08319e-07 -1.91215e-07 0.000328416)
(5.06935e-07 -1.90231e-07 -1.84068e-05)
(5.05589e-07 -1.89322e-07 -0.000347275)
(5.04312e-07 -1.88462e-07 -0.000743051)
(5.03103e-07 -1.87648e-07 -0.00119128)
(5.02071e-07 -1.86914e-07 -0.00150818)
(5.01074e-07 -1.8627e-07 -0.00173011)
(5.00129e-07 -1.85671e-07 -0.00193931)
(4.99238e-07 -1.85115e-07 -0.00213981)
(4.98397e-07 -1.84601e-07 -0.00233226)
(4.97661e-07 -1.84166e-07 -0.0026435)
(4.96985e-07 -1.83779e-07 -0.0029752)
(4.96354e-07 -1.83426e-07 -0.00329314)
(4.95749e-07 -1.83105e-07 -0.00353451)
(4.95181e-07 -1.82818e-07 -0.00375042)
(4.94654e-07 -1.82562e-07 -0.00395539)
(4.94166e-07 -1.82334e-07 -0.00415865)
(4.93698e-07 -1.82145e-07 -0.00432234)
(4.93264e-07 -1.81986e-07 -0.00446629)
(4.92866e-07 -1.81852e-07 -0.00460258)
(4.92507e-07 -1.81756e-07 -0.00470621)
(4.92184e-07 -1.81688e-07 -0.00479572)
(4.91894e-07 -1.81641e-07 -0.0048792)
(4.91637e-07 -1.81617e-07 -0.00495694)
(4.91401e-07 -1.81598e-07 -0.00498862)
(4.91189e-07 -1.81589e-07 -0.00498914)
(4.91008e-07 -1.81601e-07 -0.00498702)
(4.90871e-07 -1.81646e-07 -0.00499914)
(4.90771e-07 -1.81718e-07 -0.00501866)
(4.90698e-07 -1.81808e-07 -0.0050348)
(4.90652e-07 -1.81915e-07 -0.00504776)
(4.90658e-07 -1.82055e-07 -0.00504355)
(4.90705e-07 -1.8222e-07 -0.00502792)
(4.90776e-07 -1.82399e-07 -0.00501034)
(4.9087e-07 -1.82591e-07 -0.00499087)
(4.90986e-07 -1.82796e-07 -0.00496947)
(4.91121e-07 -1.8301e-07 -0.0049238)
(4.91278e-07 -1.83235e-07 -0.00486136)
(4.91457e-07 -1.83471e-07 -0.00479804)
(4.91655e-07 -1.83719e-07 -0.00473371)
(4.91874e-07 -1.83978e-07 -0.0046684)
(4.92114e-07 -1.84246e-07 -0.00460506)
(4.92373e-07 -1.84524e-07 -0.00454201)
(4.92651e-07 -1.8481e-07 -0.00447816)
(4.92961e-07 -1.85106e-07 -0.00443076)
(4.93292e-07 -1.85415e-07 -0.00438246)
(4.93636e-07 -1.85744e-07 -0.00432488)
(4.93997e-07 -1.86081e-07 -0.0042664)
(4.94373e-07 -1.86426e-07 -0.00420215)
(4.94758e-07 -1.86776e-07 -0.00412384)
(4.9516e-07 -1.87133e-07 -0.00404467)
(4.95577e-07 -1.87495e-07 -0.0039648)
(4.96009e-07 -1.87863e-07 -0.00388414)
(4.96451e-07 -1.88229e-07 -0.00380118)
(4.96907e-07 -1.886e-07 -0.00371743)
(4.97376e-07 -1.88976e-07 -0.00363286)
(4.97859e-07 -1.89355e-07 -0.0035476)
(4.9835e-07 -1.89743e-07 -0.00346628)
(4.98854e-07 -1.90134e-07 -0.00338476)
(4.9937e-07 -1.90528e-07 -0.00330275)
(4.99897e-07 -1.90923e-07 -0.00322042)
(5.00435e-07 -1.91321e-07 -0.00313787)
(5.00983e-07 -1.91719e-07 -0.00305517)
(5.01542e-07 -1.92119e-07 -0.00297231)
(5.02111e-07 -1.92518e-07 -0.00288928)
(5.02728e-07 -1.92929e-07 -0.00278782)
(5.03355e-07 -1.93349e-07 -0.00267294)
(5.0399e-07 -1.93767e-07 -0.00255792)
(5.04678e-07 -1.94173e-07 -0.00252301)
(5.05372e-07 -1.94573e-07 -0.00248679)
(5.0607e-07 -1.94967e-07 -0.00244946)
(5.06774e-07 -1.9535e-07 -0.00241025)
(5.07476e-07 -1.95724e-07 -0.00236603)
(5.08192e-07 -1.96076e-07 -0.00231657)
(5.0889e-07 -1.96399e-07 -0.00226197)
(5.09627e-07 -1.96683e-07 -0.00223308)
(5.10419e-07 -1.96858e-07 -0.00230779)
(5.64265e-07 -2.39361e-07 -0.000252071)
(5.62267e-07 -2.36252e-07 0.00376913)
(5.595e-07 -2.33033e-07 0.0067262)
(5.55138e-07 -2.29552e-07 0.00701209)
(5.5117e-07 -2.26242e-07 0.00606033)
(5.47731e-07 -2.23369e-07 0.00501899)
(5.44443e-07 -2.20933e-07 0.00397537)
(5.414e-07 -2.18589e-07 0.00325685)
(5.38621e-07 -2.1664e-07 0.0023115)
(5.35289e-07 -2.14574e-07 0.000753419)
(5.32119e-07 -2.12627e-07 -0.000801499)
(5.29036e-07 -2.10615e-07 -0.00146506)
(5.26062e-07 -2.08833e-07 -0.0011728)
(5.2322e-07 -2.07177e-07 -0.000788613)
(5.20499e-07 -2.05605e-07 -0.000415913)
(5.17909e-07 -2.04104e-07 -3.35266e-05)
(5.15431e-07 -2.02684e-07 0.000333362)
(5.13069e-07 -2.01342e-07 0.000669829)
(5.10954e-07 -2.00044e-07 0.000861485)
(5.08958e-07 -1.98776e-07 0.000926158)
(5.07051e-07 -1.97577e-07 0.000990375)
(5.05383e-07 -1.96459e-07 0.000687558)
(5.03843e-07 -1.95407e-07 0.000281526)
(5.02355e-07 -1.94415e-07 -7.59849e-05)
(5.00917e-07 -1.93477e-07 -0.000412225)
(4.99546e-07 -1.92591e-07 -0.000739431)
(4.98243e-07 -1.91761e-07 -0.00105531)
(4.97014e-07 -1.9097e-07 -0.00148972)
(4.95919e-07 -1.90247e-07 -0.00180263)
(4.94896e-07 -1.89582e-07 -0.00198801)
(4.93911e-07 -1.88997e-07 -0.00211705)
(4.92982e-07 -1.88454e-07 -0.0022404)
(4.92103e-07 -1.87953e-07 -0.00235895)
(4.91282e-07 -1.87497e-07 -0.00248861)
(4.90573e-07 -1.8712e-07 -0.00275056)
(4.89902e-07 -1.86782e-07 -0.00298469)
(4.89271e-07 -1.86482e-07 -0.0031897)
(4.88673e-07 -1.86218e-07 -0.00336155)
(4.88107e-07 -1.8599e-07 -0.00349561)
(4.87581e-07 -1.85787e-07 -0.00361188)
(4.87091e-07 -1.85616e-07 -0.00373845)
(4.86638e-07 -1.85471e-07 -0.00386415)
(4.86219e-07 -1.85358e-07 -0.00396802)
(4.85788e-07 -1.85243e-07 -0.00408425)
(4.85395e-07 -1.85152e-07 -0.00419343)
(4.85037e-07 -1.85085e-07 -0.00429582)
(4.84714e-07 -1.8504e-07 -0.0043917)
(4.84426e-07 -1.85017e-07 -0.0044812)
(4.8417e-07 -1.85015e-07 -0.00456472)
(4.83946e-07 -1.85032e-07 -0.00464254)
(4.83765e-07 -1.85081e-07 -0.00472561)
(4.83625e-07 -1.85157e-07 -0.00481252)
(4.83504e-07 -1.85235e-07 -0.00484939)
(4.83409e-07 -1.85329e-07 -0.00487518)
(4.83382e-07 -1.85465e-07 -0.00487623)
(4.8339e-07 -1.85622e-07 -0.00486994)
(4.83423e-07 -1.85792e-07 -0.0048611)
(4.8348e-07 -1.85977e-07 -0.00484987)
(4.8358e-07 -1.86182e-07 -0.00478976)
(4.83704e-07 -1.864e-07 -0.00472697)
(4.83849e-07 -1.8663e-07 -0.00466317)
(4.84016e-07 -1.86872e-07 -0.00459846)
(4.84203e-07 -1.87125e-07 -0.00453274)
(4.8441e-07 -1.87389e-07 -0.00446598)
(4.84638e-07 -1.87662e-07 -0.00439996)
(4.84885e-07 -1.87944e-07 -0.00433535)
(4.85167e-07 -1.88234e-07 -0.00428988)
(4.8547e-07 -1.88533e-07 -0.00424592)
(4.8579e-07 -1.88841e-07 -0.00420071)
(4.86135e-07 -1.89169e-07 -0.00416581)
(4.86539e-07 -1.895e-07 -0.00420796)
(4.8696e-07 -1.89838e-07 -0.00424723)
(4.87394e-07 -1.90181e-07 -0.00427858)
(4.87843e-07 -1.9053e-07 -0.00430847)
(4.88308e-07 -1.90886e-07 -0.00433711)
(4.88785e-07 -1.91239e-07 -0.00431742)
(4.89297e-07 -1.91588e-07 -0.00418239)
(4.89822e-07 -1.91943e-07 -0.00404718)
(4.90359e-07 -1.92302e-07 -0.00391179)
(4.90909e-07 -1.92665e-07 -0.00377625)
(4.91471e-07 -1.93032e-07 -0.00364068)
(4.92045e-07 -1.93401e-07 -0.00350518)
(4.9263e-07 -1.93773e-07 -0.00336948)
(4.93225e-07 -1.94147e-07 -0.00323359)
(4.93831e-07 -1.94522e-07 -0.00309765)
(4.94448e-07 -1.94898e-07 -0.00296148)
(4.95073e-07 -1.95273e-07 -0.00282503)
(4.95707e-07 -1.95648e-07 -0.00268815)
(4.96351e-07 -1.96022e-07 -0.002555)
(4.97037e-07 -1.96417e-07 -0.00253249)
(4.97717e-07 -1.96813e-07 -0.00249324)
(4.98401e-07 -1.97206e-07 -0.00245441)
(4.99091e-07 -1.9759e-07 -0.00241918)
(4.99787e-07 -1.97963e-07 -0.00238846)
(5.00489e-07 -1.98321e-07 -0.00236373)
(5.01194e-07 -1.98665e-07 -0.00233588)
(5.01891e-07 -1.9901e-07 -0.0023133)
(5.02538e-07 -1.99372e-07 -0.00232717)
(5.03256e-07 -1.99691e-07 -0.00238502)
(5.03982e-07 -2.00032e-07 -0.00254324)
(5.57939e-07 -2.41574e-07 -0.000447173)
(5.55985e-07 -2.3862e-07 0.00413701)
(5.53585e-07 -2.3545e-07 0.00627389)
(5.49587e-07 -2.32009e-07 0.00582507)
(5.45569e-07 -2.2877e-07 0.00486045)
(5.42021e-07 -2.25924e-07 0.00382354)
(5.38825e-07 -2.23496e-07 0.00338312)
(5.35848e-07 -2.21009e-07 0.00360236)
(5.32992e-07 -2.18912e-07 0.00314436)
(5.29632e-07 -2.16865e-07 0.0016897)
(5.26429e-07 -2.14962e-07 0.000146947)
(5.23376e-07 -2.13147e-07 -0.00118323)
(5.20369e-07 -2.11359e-07 -0.0010382)
(5.17495e-07 -2.0974e-07 -0.000655656)
(5.14744e-07 -2.08204e-07 -0.000286675)
(5.12124e-07 -2.06739e-07 9.24237e-05)
(5.09619e-07 -2.05351e-07 0.000458038)
(5.07223e-07 -2.04037e-07 0.000811216)
(5.04951e-07 -2.02797e-07 0.00112393)
(5.02973e-07 -2.01642e-07 0.00102987)
(5.01218e-07 -2.00567e-07 0.000619113)
(4.99538e-07 -1.9955e-07 0.000239041)
(4.9787e-07 -1.98591e-07 -4.16261e-05)
(4.96296e-07 -1.97648e-07 -0.000404817)
(4.94829e-07 -1.96741e-07 -0.000707635)
(4.9343e-07 -1.95864e-07 -0.000975374)
(4.921e-07 -1.95036e-07 -0.00122265)
(4.90802e-07 -1.94278e-07 -0.00139757)
(4.89629e-07 -1.93562e-07 -0.00164748)
(4.88594e-07 -1.92899e-07 -0.00184769)
(4.87612e-07 -1.92298e-07 -0.00203042)
(4.86678e-07 -1.91765e-07 -0.00219162)
(4.85796e-07 -1.91273e-07 -0.00234238)
(4.84941e-07 -1.90821e-07 -0.00245756)
(4.84101e-07 -1.90395e-07 -0.00263663)
(4.83323e-07 -1.90035e-07 -0.00286431)
(4.82579e-07 -1.89717e-07 -0.00304412)
(4.81881e-07 -1.89432e-07 -0.00321505)
(4.81228e-07 -1.89176e-07 -0.00337311)
(4.80618e-07 -1.88947e-07 -0.00351398)
(4.80052e-07 -1.88747e-07 -0.00364748)
(4.79522e-07 -1.88586e-07 -0.00377377)
(4.79046e-07 -1.88456e-07 -0.00390805)
(4.78617e-07 -1.88349e-07 -0.0040492)
(4.78228e-07 -1.88266e-07 -0.00418637)
(4.77875e-07 -1.88206e-07 -0.00431946)
(4.7756e-07 -1.88168e-07 -0.00444862)
(4.77279e-07 -1.8815e-07 -0.00457386)
(4.77034e-07 -1.88153e-07 -0.00469558)
(4.76821e-07 -1.88175e-07 -0.0048138)
(4.76652e-07 -1.88224e-07 -0.00493939)
(4.76529e-07 -1.88303e-07 -0.00507644)
(4.76456e-07 -1.88392e-07 -0.00510248)
(4.7643e-07 -1.88492e-07 -0.0050272)
(4.76485e-07 -1.88633e-07 -0.00494901)
(4.76565e-07 -1.88791e-07 -0.00486895)
(4.76675e-07 -1.88962e-07 -0.00478514)
(4.76825e-07 -1.89151e-07 -0.00469256)
(4.76999e-07 -1.89354e-07 -0.00459894)
(4.77194e-07 -1.89567e-07 -0.00450464)
(4.77409e-07 -1.89786e-07 -0.00437584)
(4.77644e-07 -1.90013e-07 -0.004239)
(4.779e-07 -1.90252e-07 -0.00410263)
(4.78176e-07 -1.90501e-07 -0.00396675)
(4.78471e-07 -1.9076e-07 -0.00383169)
(4.78799e-07 -1.91027e-07 -0.00372227)
(4.79148e-07 -1.91303e-07 -0.0036151)
(4.79513e-07 -1.91588e-07 -0.00350784)
(4.79896e-07 -1.91881e-07 -0.00340032)
(4.80299e-07 -1.92185e-07 -0.00329318)
(4.80733e-07 -1.92501e-07 -0.00319551)
(4.81185e-07 -1.92823e-07 -0.00310643)
(4.81655e-07 -1.93145e-07 -0.00303291)
(4.82141e-07 -1.93473e-07 -0.00295958)
(4.82635e-07 -1.93801e-07 -0.00287863)
(4.83141e-07 -1.94132e-07 -0.00279427)
(4.83654e-07 -1.94474e-07 -0.0027074)
(4.84155e-07 -1.94849e-07 -0.00261017)
(4.84669e-07 -1.95228e-07 -0.00251269)
(4.85195e-07 -1.9561e-07 -0.00241501)
(4.85732e-07 -1.95996e-07 -0.00231713)
(4.86281e-07 -1.96386e-07 -0.00221888)
(4.8684e-07 -1.96777e-07 -0.00212007)
(4.87408e-07 -1.97171e-07 -0.0020206)
(4.87987e-07 -1.97566e-07 -0.00192048)
(4.88575e-07 -1.97964e-07 -0.00182941)
(4.89172e-07 -1.98363e-07 -0.00174)
(4.89777e-07 -1.98761e-07 -0.00164982)
(4.90388e-07 -1.99159e-07 -0.00155883)
(4.91014e-07 -1.99561e-07 -0.00149835)
(4.91674e-07 -1.99979e-07 -0.0015259)
(4.92338e-07 -2.00393e-07 -0.0015535)
(4.92989e-07 -2.00807e-07 -0.00154935)
(4.93644e-07 -2.01213e-07 -0.00154852)
(4.94304e-07 -2.01608e-07 -0.00155114)
(4.94964e-07 -2.01995e-07 -0.00155771)
(4.95625e-07 -2.02363e-07 -0.00157878)
(4.96267e-07 -2.02732e-07 -0.00160139)
(4.96969e-07 -2.03065e-07 -0.00165303)
(4.97627e-07 -2.03407e-07 -0.00171897)
(5.51963e-07 -2.43495e-07 -0.0034758)
(5.50457e-07 -2.40823e-07 0.0020043)
(5.4787e-07 -2.37789e-07 0.00385642)
(5.43998e-07 -2.34441e-07 0.00404714)
(5.40002e-07 -2.31285e-07 0.00348103)
(5.36368e-07 -2.28458e-07 0.00280228)
(5.33319e-07 -2.26047e-07 0.003071)
(5.30281e-07 -2.2366e-07 0.00343411)
(5.27339e-07 -2.21298e-07 0.00355298)
(5.23967e-07 -2.19187e-07 0.0023872)
(5.20745e-07 -2.17306e-07 0.000876056)
(5.17697e-07 -2.15534e-07 -0.000511449)
(5.14755e-07 -2.13886e-07 -0.00117551)
(5.11882e-07 -2.12289e-07 -0.000774092)
(5.09136e-07 -2.10782e-07 -0.000439268)
(5.06522e-07 -2.09347e-07 -0.000127822)
(5.04021e-07 -2.07981e-07 0.000202152)
(5.01625e-07 -2.06682e-07 0.000542696)
(4.99611e-07 -2.05483e-07 0.000203554)
(4.97722e-07 -2.04349e-07 -0.000148745)
(4.95945e-07 -2.03287e-07 -0.000549306)
(4.94226e-07 -2.02289e-07 -0.000952161)
(4.92565e-07 -2.0135e-07 -0.00128647)
(4.9098e-07 -2.00466e-07 -0.00160316)
(4.89474e-07 -1.99635e-07 -0.00191153)
(4.88018e-07 -1.98838e-07 -0.00219845)
(4.86538e-07 -1.98022e-07 -0.00242829)
(4.85078e-07 -1.97286e-07 -0.00251913)
(4.83736e-07 -1.96581e-07 -0.00271657)
(4.82595e-07 -1.95906e-07 -0.00295583)
(4.81516e-07 -1.95275e-07 -0.00318918)
(4.8051e-07 -1.94697e-07 -0.0034498)
(4.79571e-07 -1.94176e-07 -0.00372375)
(4.78695e-07 -1.93695e-07 -0.0039669)
(4.77862e-07 -1.93258e-07 -0.00417245)
(4.77112e-07 -1.92881e-07 -0.00419484)
(4.76419e-07 -1.92558e-07 -0.00417284)
(4.75773e-07 -1.92266e-07 -0.0041458)
(4.75173e-07 -1.92002e-07 -0.00410713)
(4.74618e-07 -1.91766e-07 -0.00405362)
(4.74107e-07 -1.91563e-07 -0.00400306)
(4.73638e-07 -1.91393e-07 -0.00395907)
(4.73212e-07 -1.91248e-07 -0.00391711)
(4.72829e-07 -1.91123e-07 -0.00388208)
(4.72486e-07 -1.91022e-07 -0.00384624)
(4.7218e-07 -1.90943e-07 -0.0038095)
(4.71912e-07 -1.90885e-07 -0.00377216)
(4.71678e-07 -1.90847e-07 -0.00373409)
(4.71479e-07 -1.90829e-07 -0.00369549)
(4.71313e-07 -1.9083e-07 -0.00365627)
(4.71188e-07 -1.90856e-07 -0.00361944)
(4.71112e-07 -1.90914e-07 -0.00358871)
(4.71066e-07 -1.90988e-07 -0.00355718)
(4.71056e-07 -1.91083e-07 -0.00352528)
(4.7112e-07 -1.91215e-07 -0.00349587)
(4.7122e-07 -1.91363e-07 -0.00346328)
(4.71358e-07 -1.91528e-07 -0.00342737)
(4.71519e-07 -1.91705e-07 -0.0033911)
(4.7169e-07 -1.91908e-07 -0.00334641)
(4.7186e-07 -1.92147e-07 -0.00328742)
(4.72051e-07 -1.92398e-07 -0.00322788)
(4.72264e-07 -1.92659e-07 -0.00316806)
(4.72497e-07 -1.92931e-07 -0.00310795)
(4.7275e-07 -1.93212e-07 -0.00304748)
(4.73036e-07 -1.93503e-07 -0.00299877)
(4.73343e-07 -1.93802e-07 -0.00295388)
(4.73667e-07 -1.94109e-07 -0.00291238)
(4.7401e-07 -1.94425e-07 -0.0028702)
(4.74369e-07 -1.94748e-07 -0.00282736)
(4.74745e-07 -1.9508e-07 -0.00278388)
(4.75144e-07 -1.95428e-07 -0.00272944)
(4.75561e-07 -1.95788e-07 -0.00267067)
(4.75991e-07 -1.96152e-07 -0.00259805)
(4.76432e-07 -1.96519e-07 -0.00252314)
(4.76883e-07 -1.96889e-07 -0.00244632)
(4.77348e-07 -1.97263e-07 -0.00236922)
(4.77826e-07 -1.97642e-07 -0.00229175)
(4.78317e-07 -1.98026e-07 -0.00221388)
(4.78819e-07 -1.98411e-07 -0.00212458)
(4.79333e-07 -1.98798e-07 -0.00202325)
(4.79859e-07 -1.9919e-07 -0.00193285)
(4.80396e-07 -1.99586e-07 -0.00184235)
(4.80942e-07 -1.99984e-07 -0.00175126)
(4.81499e-07 -2.00384e-07 -0.00165964)
(4.82064e-07 -2.00785e-07 -0.00156752)
(4.82638e-07 -2.01187e-07 -0.00147486)
(4.83219e-07 -2.01589e-07 -0.00138152)
(4.83808e-07 -2.01991e-07 -0.00128734)
(4.84402e-07 -2.02392e-07 -0.00119224)
(4.85003e-07 -2.0279e-07 -0.00109633)
(4.85623e-07 -2.03196e-07 -0.00104898)
(4.86271e-07 -2.03615e-07 -0.00107307)
(4.86922e-07 -2.04027e-07 -0.00109861)
(4.87578e-07 -2.04434e-07 -0.00112594)
(4.88223e-07 -2.04835e-07 -0.00112639)
(4.88864e-07 -2.05233e-07 -0.00114158)
(4.89509e-07 -2.05613e-07 -0.00117153)
(4.9014e-07 -2.06004e-07 -0.00118864)
(4.90829e-07 -2.06364e-07 -0.00122807)
(4.91455e-07 -2.06701e-07 -0.00125894)
(5.47117e-07 -2.45241e-07 -0.00841199)
(5.45507e-07 -2.42752e-07 -0.00226043)
(5.42825e-07 -2.39954e-07 9.29405e-05)
(5.38885e-07 -2.36703e-07 0.00020395)
(5.35267e-07 -2.33585e-07 0.00128763)
(5.31843e-07 -2.30755e-07 0.00152021)
(5.28633e-07 -2.28438e-07 0.00136037)
(5.25509e-07 -2.26165e-07 0.00169906)
(5.22484e-07 -2.23839e-07 0.00179907)
(5.19037e-07 -2.21325e-07 0.00163366)
(5.15807e-07 -2.19426e-07 0.000157331)
(5.1271e-07 -2.17688e-07 -0.00114119)
(5.09752e-07 -2.16161e-07 -0.00194806)
(5.0689e-07 -2.14688e-07 -0.00216154)
(5.04105e-07 -2.13195e-07 -0.00171806)
(5.01458e-07 -2.11773e-07 -0.00130163)
(4.99103e-07 -2.10432e-07 -0.00113733)
(4.97007e-07 -2.09178e-07 -0.00135682)
(4.95011e-07 -2.07989e-07 -0.00156698)
(4.93092e-07 -2.06867e-07 -0.00175765)
(4.91293e-07 -2.05809e-07 -0.00197095)
(4.89541e-07 -2.04771e-07 -0.0021795)
(4.87811e-07 -2.03765e-07 -0.00237461)
(4.86148e-07 -2.02817e-07 -0.00255936)
(4.84569e-07 -2.01924e-07 -0.00273545)
(4.8307e-07 -2.01081e-07 -0.00290298)
(4.8162e-07 -2.003e-07 -0.00297565)
(4.80179e-07 -1.99568e-07 -0.00285977)
(4.7882e-07 -1.98876e-07 -0.00278237)
(4.77695e-07 -1.98207e-07 -0.00287765)
(4.76639e-07 -1.97575e-07 -0.00299473)
(4.75644e-07 -1.96986e-07 -0.00310451)
(4.74718e-07 -1.96451e-07 -0.00321498)
(4.73857e-07 -1.95966e-07 -0.00328856)
(4.7305e-07 -1.95518e-07 -0.00334959)
(4.72296e-07 -1.95106e-07 -0.0034053)
(4.71598e-07 -1.94771e-07 -0.00343096)
(4.7095e-07 -1.94476e-07 -0.00344745)
(4.70349e-07 -1.94209e-07 -0.00345221)
(4.6979e-07 -1.93974e-07 -0.00344011)
(4.6927e-07 -1.93782e-07 -0.00341892)
(4.68792e-07 -1.93615e-07 -0.00339598)
(4.68357e-07 -1.93474e-07 -0.0033706)
(4.67956e-07 -1.9336e-07 -0.00333493)
(4.67566e-07 -1.933e-07 -0.00328075)
(4.67201e-07 -1.93276e-07 -0.00321739)
(4.66874e-07 -1.93272e-07 -0.00315349)
(4.66584e-07 -1.93288e-07 -0.00308905)
(4.66329e-07 -1.93321e-07 -0.00302426)
(4.66109e-07 -1.93374e-07 -0.00295898)
(4.65926e-07 -1.93446e-07 -0.00289485)
(4.65798e-07 -1.93554e-07 -0.00283842)
(4.657e-07 -1.93676e-07 -0.00278143)
(4.65646e-07 -1.93821e-07 -0.00272459)
(4.65675e-07 -1.94003e-07 -0.00266667)
(4.6574e-07 -1.94201e-07 -0.00260627)
(4.65829e-07 -1.9441e-07 -0.00254529)
(4.65943e-07 -1.94632e-07 -0.00248419)
(4.66081e-07 -1.94866e-07 -0.00242241)
(4.66241e-07 -1.95111e-07 -0.00236025)
(4.66424e-07 -1.95367e-07 -0.00229764)
(4.66628e-07 -1.95634e-07 -0.00223455)
(4.66852e-07 -1.9591e-07 -0.00217112)
(4.6711e-07 -1.96196e-07 -0.00211822)
(4.67389e-07 -1.96491e-07 -0.00206771)
(4.67688e-07 -1.96794e-07 -0.00201704)
(4.68005e-07 -1.97105e-07 -0.00196966)
(4.6834e-07 -1.97424e-07 -0.00192378)
(4.68692e-07 -1.97752e-07 -0.00187719)
(4.6906e-07 -1.98086e-07 -0.00182986)
(4.69446e-07 -1.9843e-07 -0.00177933)
(4.69855e-07 -1.98793e-07 -0.00171612)
(4.70275e-07 -1.9916e-07 -0.00164044)
(4.70704e-07 -1.99527e-07 -0.00155927)
(4.71146e-07 -1.999e-07 -0.00147768)
(4.71604e-07 -2.00279e-07 -0.00140392)
(4.72074e-07 -2.00664e-07 -0.00133141)
(4.7255e-07 -2.01055e-07 -0.00126552)
(4.73036e-07 -2.01451e-07 -0.00120204)
(4.73533e-07 -2.01851e-07 -0.00113819)
(4.7404e-07 -2.02254e-07 -0.00107414)
(4.74557e-07 -2.0266e-07 -0.00100985)
(4.75083e-07 -2.03069e-07 -0.000945254)
(4.75617e-07 -2.0348e-07 -0.000880494)
(4.76159e-07 -2.03893e-07 -0.000815783)
(4.76708e-07 -2.04307e-07 -0.000751096)
(4.77264e-07 -2.04722e-07 -0.000686249)
(4.77825e-07 -2.05136e-07 -0.000621224)
(4.7839e-07 -2.0555e-07 -0.000556126)
(4.78959e-07 -2.05963e-07 -0.000491062)
(4.79532e-07 -2.06374e-07 -0.000425992)
(4.80125e-07 -2.06795e-07 -0.00041815)
(4.80739e-07 -2.07226e-07 -0.000474009)
(4.81356e-07 -2.07653e-07 -0.000531457)
(4.81974e-07 -2.08075e-07 -0.000589776)
(4.82587e-07 -2.08491e-07 -0.000658842)
(4.83222e-07 -2.08888e-07 -0.000724889)
(4.83833e-07 -2.093e-07 -0.000759723)
(4.84503e-07 -2.09686e-07 -0.000809142)
(4.85109e-07 -2.10059e-07 -0.000847969)
(5.42341e-07 -2.46968e-07 -0.0125323)
(5.40691e-07 -2.44513e-07 -0.00611335)
(5.38315e-07 -2.41856e-07 -0.00145647)
(5.34581e-07 -2.38652e-07 -7.05016e-05)
(5.31144e-07 -2.35609e-07 0.00133877)
(5.2791e-07 -2.32784e-07 0.00268265)
(5.24682e-07 -2.30521e-07 0.00270586)
(5.21441e-07 -2.28351e-07 0.00274496)
(5.1824e-07 -2.26104e-07 0.00240162)
(5.14696e-07 -2.23669e-07 0.00187716)
(5.11423e-07 -2.21353e-07 0.00133142)
(5.08313e-07 -2.19426e-07 0.000594131)
(5.05356e-07 -2.17939e-07 -5.49359e-05)
(5.02533e-07 -2.16554e-07 -0.000576869)
(4.99844e-07 -2.15189e-07 -0.000710923)
(4.97517e-07 -2.13827e-07 -0.000951134)
(4.95308e-07 -2.12533e-07 -0.00117876)
(4.93157e-07 -2.11281e-07 -0.00141503)
(4.90966e-07 -2.10035e-07 -0.00167165)
(4.88872e-07 -2.08854e-07 -0.00191271)
(4.86877e-07 -2.07739e-07 -0.00214474)
(4.85029e-07 -2.06684e-07 -0.00241239)
(4.83289e-07 -2.05694e-07 -0.00263132)
(4.81583e-07 -2.04789e-07 -0.0026649)
(4.79936e-07 -2.03952e-07 -0.00262921)
(4.78371e-07 -2.03165e-07 -0.00259167)
(4.76885e-07 -2.02425e-07 -0.00255242)
(4.7547e-07 -2.01719e-07 -0.00255618)
(4.74108e-07 -2.01043e-07 -0.00248227)
(4.72927e-07 -2.00407e-07 -0.0024284)
(4.7187e-07 -1.99788e-07 -0.00253156)
(4.70873e-07 -1.9921e-07 -0.00262859)
(4.69923e-07 -1.98681e-07 -0.00268846)
(4.68997e-07 -1.98248e-07 -0.00270725)
(4.68135e-07 -1.97863e-07 -0.00272866)
(4.67326e-07 -1.97513e-07 -0.00274601)
(4.66569e-07 -1.97197e-07 -0.00275977)
(4.65865e-07 -1.96962e-07 -0.00274124)
(4.65209e-07 -1.96756e-07 -0.00271099)
(4.64597e-07 -1.96591e-07 -0.00266932)
(4.6403e-07 -1.96452e-07 -0.0026268)
(4.63506e-07 -1.96338e-07 -0.00258304)
(4.63024e-07 -1.96248e-07 -0.00253833)
(4.62582e-07 -1.96182e-07 -0.00249084)
(4.62175e-07 -1.96142e-07 -0.00243485)
(4.61806e-07 -1.96123e-07 -0.00237823)
(4.61475e-07 -1.96124e-07 -0.00232131)
(4.6118e-07 -1.96145e-07 -0.00226397)
(4.60919e-07 -1.96183e-07 -0.00220643)
(4.60691e-07 -1.96242e-07 -0.0021464)
(4.60492e-07 -1.9632e-07 -0.00208155)
(4.60352e-07 -1.96436e-07 -0.00202652)
(4.60242e-07 -1.96567e-07 -0.00197123)
(4.60196e-07 -1.96726e-07 -0.00191308)
(4.60221e-07 -1.96918e-07 -0.0018556)
(4.60272e-07 -1.97123e-07 -0.00179817)
(4.60347e-07 -1.97341e-07 -0.00174052)
(4.60447e-07 -1.97571e-07 -0.0016829)
(4.6057e-07 -1.97812e-07 -0.00162515)
(4.60716e-07 -1.98065e-07 -0.00156712)
(4.60883e-07 -1.98328e-07 -0.00150896)
(4.61071e-07 -1.98602e-07 -0.00145071)
(4.6129e-07 -1.98886e-07 -0.00140143)
(4.61535e-07 -1.99179e-07 -0.00135654)
(4.61798e-07 -1.99481e-07 -0.00131149)
(4.6208e-07 -1.99791e-07 -0.0012664)
(4.62381e-07 -2.00109e-07 -0.00122136)
(4.62698e-07 -2.00436e-07 -0.0011791)
(4.63033e-07 -2.00769e-07 -0.00113834)
(4.63383e-07 -2.01111e-07 -0.00109694)
(4.6375e-07 -2.0146e-07 -0.00105836)
(4.64138e-07 -2.01826e-07 -0.00101724)
(4.64537e-07 -2.02197e-07 -0.000957784)
(4.64948e-07 -2.02573e-07 -0.000893)
(4.65373e-07 -2.02955e-07 -0.000827868)
(4.6581e-07 -2.03341e-07 -0.000762495)
(4.6626e-07 -2.03733e-07 -0.00069687)
(4.66722e-07 -2.04128e-07 -0.000630822)
(4.67195e-07 -2.04528e-07 -0.000564246)
(4.67679e-07 -2.04932e-07 -0.000497246)
(4.68172e-07 -2.05339e-07 -0.000430014)
(4.68675e-07 -2.05749e-07 -0.000362348)
(4.69187e-07 -2.06162e-07 -0.000294344)
(4.69707e-07 -2.06577e-07 -0.000226104)
(4.70234e-07 -2.06992e-07 -0.000157657)
(4.70769e-07 -2.0741e-07 -8.93992e-05)
(4.7131e-07 -2.07829e-07 -2.08829e-05)
(4.71856e-07 -2.08248e-07 4.80203e-05)
(4.72407e-07 -2.08666e-07 0.000117176)
(4.72963e-07 -2.09084e-07 0.000186543)
(4.73522e-07 -2.095e-07 0.000256166)
(4.74084e-07 -2.09914e-07 0.000325995)
(4.74667e-07 -2.10338e-07 0.000339687)
(4.75272e-07 -2.10773e-07 0.000291786)
(4.75879e-07 -2.11203e-07 0.000242403)
(4.76476e-07 -2.11633e-07 0.000183346)
(4.77082e-07 -2.1205e-07 0.000124231)
(4.77677e-07 -2.12483e-07 6.97181e-05)
(4.78324e-07 -2.12892e-07 -5.97259e-06)
(4.78901e-07 -2.13296e-07 -6.90046e-05)
(5.38e-07 -2.48553e-07 -0.0139199)
(5.36265e-07 -2.4616e-07 -0.00760203)
(5.33854e-07 -2.43553e-07 -0.00242537)
(5.30421e-07 -2.40591e-07 -2.52819e-05)
(5.26905e-07 -2.37657e-07 0.00141915)
(5.23597e-07 -2.34847e-07 0.00281953)
(5.20535e-07 -2.32613e-07 0.0036891)
(5.17392e-07 -2.305e-07 0.0040951)
(5.14114e-07 -2.28313e-07 0.00391085)
(5.10558e-07 -2.25931e-07 0.00340999)
(5.07265e-07 -2.23664e-07 0.00288414)
(5.04141e-07 -2.21559e-07 0.00248728)
(5.01148e-07 -2.19738e-07 0.00267595)
(4.98459e-07 -2.18324e-07 0.0017887)
(4.96032e-07 -2.17094e-07 0.000262242)
(4.93472e-07 -2.1576e-07 -0.00109012)
(4.91075e-07 -2.14395e-07 -0.00138689)
(4.8876e-07 -2.13109e-07 -0.00165025)
(4.86553e-07 -2.11891e-07 -0.00190227)
(4.84446e-07 -2.10736e-07 -0.00214153)
(4.82372e-07 -2.09684e-07 -0.00219169)
(4.80402e-07 -2.0869e-07 -0.00223984)
(4.7856e-07 -2.07759e-07 -0.00229899)
(4.76767e-07 -2.06921e-07 -0.00228687)
(4.7505e-07 -2.06166e-07 -0.00221344)
(4.73414e-07 -2.05458e-07 -0.00213858)
(4.7186e-07 -2.04795e-07 -0.0020814)
(4.70389e-07 -2.04167e-07 -0.00207933)
(4.68978e-07 -2.03579e-07 -0.00204861)
(4.67694e-07 -2.03027e-07 -0.00198164)
(4.66546e-07 -2.02503e-07 -0.00194061)
(4.65482e-07 -2.01996e-07 -0.00198986)
(4.64477e-07 -2.01527e-07 -0.00200119)
(4.63529e-07 -2.01095e-07 -0.00200879)
(4.62647e-07 -2.00713e-07 -0.00202026)
(4.61826e-07 -2.00378e-07 -0.00203422)
(4.61057e-07 -2.00075e-07 -0.00204476)
(4.60338e-07 -1.99808e-07 -0.00204948)
(4.5967e-07 -1.99628e-07 -0.00201656)
(4.59047e-07 -1.99475e-07 -0.00197219)
(4.5847e-07 -1.99348e-07 -0.00192705)
(4.57936e-07 -1.99246e-07 -0.00188071)
(4.57445e-07 -1.99167e-07 -0.00183347)
(4.56994e-07 -1.9911e-07 -0.0017851)
(4.56582e-07 -1.99077e-07 -0.00173415)
(4.56203e-07 -1.99068e-07 -0.00167518)
(4.55863e-07 -1.99078e-07 -0.00161597)
(4.55558e-07 -1.99108e-07 -0.00155626)
(4.55288e-07 -1.99156e-07 -0.00149637)
(4.55052e-07 -1.99222e-07 -0.00143599)
(4.54848e-07 -1.99304e-07 -0.00137535)
(4.54699e-07 -1.99421e-07 -0.00132253)
(4.54603e-07 -1.9956e-07 -0.00126664)
(4.54562e-07 -1.99726e-07 -0.00121036)
(4.54581e-07 -1.99922e-07 -0.00115595)
(4.54627e-07 -2.00131e-07 -0.00110126)
(4.54697e-07 -2.00352e-07 -0.00104629)
(4.5479e-07 -2.00586e-07 -0.000990889)
(4.54906e-07 -2.00831e-07 -0.000935278)
(4.55045e-07 -2.01087e-07 -0.000879297)
(4.55206e-07 -2.01354e-07 -0.00082281)
(4.55395e-07 -2.01631e-07 -0.000773055)
(4.55612e-07 -2.01919e-07 -0.000729808)
(4.55849e-07 -2.02215e-07 -0.000686213)
(4.56105e-07 -2.0252e-07 -0.000642369)
(4.56379e-07 -2.02834e-07 -0.00059835)
(4.56672e-07 -2.03156e-07 -0.000559004)
(4.56983e-07 -2.03487e-07 -0.000525286)
(4.57311e-07 -2.03826e-07 -0.000492117)
(4.57655e-07 -2.04172e-07 -0.000461643)
(4.58013e-07 -2.04526e-07 -0.000430451)
(4.58382e-07 -2.04883e-07 -0.000394845)
(4.58769e-07 -2.05259e-07 -0.000335344)
(4.59169e-07 -2.05639e-07 -0.000267965)
(4.59582e-07 -2.06025e-07 -0.000200321)
(4.60007e-07 -2.06415e-07 -0.000132331)
(4.60446e-07 -2.0681e-07 -6.39539e-05)
(4.60895e-07 -2.0721e-07 4.88473e-06)
(4.61356e-07 -2.07613e-07 7.42201e-05)
(4.61827e-07 -2.08021e-07 0.000144232)
(4.62308e-07 -2.08431e-07 0.00021458)
(4.62798e-07 -2.08845e-07 0.00028516)
(4.63297e-07 -2.09262e-07 0.000356273)
(4.63803e-07 -2.09681e-07 0.000427768)
(4.64318e-07 -2.101e-07 0.000499091)
(4.6484e-07 -2.10519e-07 0.000570903)
(4.65368e-07 -2.10942e-07 0.000643248)
(4.65902e-07 -2.11364e-07 0.000715627)
(4.66441e-07 -2.11787e-07 0.00078854)
(4.66985e-07 -2.1221e-07 0.00086171)
(4.67534e-07 -2.12631e-07 0.000935229)
(4.68086e-07 -2.13052e-07 0.00100914)
(4.68644e-07 -2.13471e-07 0.00108363)
(4.69218e-07 -2.13898e-07 0.00111734)
(4.69818e-07 -2.14338e-07 0.0010695)
(4.70411e-07 -2.14778e-07 0.00101291)
(4.71016e-07 -2.15209e-07 0.000955873)
(4.71611e-07 -2.15655e-07 0.000908139)
(4.72258e-07 -2.16081e-07 0.000843944)
(4.72837e-07 -2.16504e-07 0.000792507)
(5.33636e-07 -2.50124e-07 -0.0152704)
(5.31817e-07 -2.4779e-07 -0.00906171)
(5.29313e-07 -2.45119e-07 -0.00408352)
(5.2604e-07 -2.42342e-07 -0.00109031)
(5.22625e-07 -2.39642e-07 0.00124732)
(5.19299e-07 -2.36948e-07 0.00290294)
(5.16117e-07 -2.34689e-07 0.00388618)
(5.13117e-07 -2.32636e-07 0.00477664)
(5.09969e-07 -2.30516e-07 0.0054204)
(5.064e-07 -2.28188e-07 0.004943)
(5.03089e-07 -2.25973e-07 0.00444413)
(4.99969e-07 -2.23886e-07 0.00398052)
(4.97241e-07 -2.22153e-07 0.00320908)
(4.94504e-07 -2.20429e-07 0.0023259)
(4.91757e-07 -2.18715e-07 0.00144117)
(4.89131e-07 -2.17435e-07 -2.9716e-05)
(4.8655e-07 -2.16307e-07 -0.00139107)
(4.84079e-07 -2.15171e-07 -0.0015117)
(4.8172e-07 -2.14092e-07 -0.00152931)
(4.79467e-07 -2.13074e-07 -0.00154185)
(4.77315e-07 -2.12114e-07 -0.00154924)
(4.75262e-07 -2.11211e-07 -0.00155202)
(4.73316e-07 -2.10363e-07 -0.00155561)
(4.71483e-07 -2.09571e-07 -0.00155439)
(4.69733e-07 -2.08827e-07 -0.0015321)
(4.6808e-07 -2.0814e-07 -0.00146709)
(4.66517e-07 -2.07493e-07 -0.00143355)
(4.65033e-07 -2.06886e-07 -0.00142723)
(4.63623e-07 -2.06322e-07 -0.00141749)
(4.6231e-07 -2.05795e-07 -0.00139167)
(4.6114e-07 -2.05301e-07 -0.00133615)
(4.60043e-07 -2.04833e-07 -0.00129243)
(4.59026e-07 -2.04383e-07 -0.00131114)
(4.58066e-07 -2.03967e-07 -0.00131515)
(4.57163e-07 -2.03586e-07 -0.00131594)
(4.56322e-07 -2.03252e-07 -0.00131968)
(4.55542e-07 -2.02964e-07 -0.00132695)
(4.54811e-07 -2.02715e-07 -0.00133095)
(4.54129e-07 -2.02508e-07 -0.00132023)
(4.53496e-07 -2.02368e-07 -0.00127313)
(4.52908e-07 -2.02254e-07 -0.00122527)
(4.52365e-07 -2.02163e-07 -0.00117625)
(4.51863e-07 -2.02095e-07 -0.00112644)
(4.51403e-07 -2.0205e-07 -0.00107558)
(4.50982e-07 -2.02025e-07 -0.00102411)
(4.50599e-07 -2.02023e-07 -0.000969959)
(4.50249e-07 -2.02043e-07 -0.000908414)
(4.49934e-07 -2.02082e-07 -0.000846366)
(4.49655e-07 -2.02138e-07 -0.000784109)
(4.49409e-07 -2.02213e-07 -0.000721497)
(4.49196e-07 -2.02304e-07 -0.000658001)
(4.49046e-07 -2.02432e-07 -0.000585624)
(4.48942e-07 -2.02585e-07 -0.000514974)