/*--------------------------------*- C++ -*----------------------------------*\
| =========                 |                                                 |
| \\      /  F ield         | foam-extend: Open Source CFD                    |
|  \\    /   O peration     | Version:     4.1                                |
|   \\  /    A nd           | Web:         http://www.foam-extend.org         |
|    \\/     M anipulation  |                                                 |
\*---------------------------------------------------------------------------*/
FoamFile
{
    version     2.0;
    format      ascii;
    class       volScalarField;
    location    "1";
    object      sigmaEq;
}
// * * * * * * * * * * * * * * * * * * * * * * * * * * * * * * * * * * * * * //

dimensions      [1 -1 -2 0 0 0 0];

internalField   nonuniform List<scalar> 
100000
(
5.35049e+10
8.40975e+10
7.48181e+10
4.94929e+10
8.02308e+09
4.11664e+10
4.52665e+10
4.36115e+10
4.33868e+10
4.70601e+10
2.34388e+10
4.18795e+09
1.07864e+10
1.22948e+10
1.26452e+10
1.25041e+10
1.42849e+10
1.76681e+10
1.93905e+10
1.92219e+10
1.87985e+10
1.24001e+10
3.63815e+09
1.0053e+10
1.2846e+10
1.2688e+10
1.25844e+10
1.13835e+10
8.979e+09
7.3328e+09
6.46635e+09
5.77138e+09
6.72846e+09
8.87196e+09
9.22986e+09
8.58336e+09
8.19902e+09
8.66884e+09
9.73198e+09
1.09177e+10
1.20369e+10
1.33755e+10
1.43741e+10
1.45964e+10
1.38591e+10
1.30648e+10
1.19759e+10
1.09424e+10
1.00264e+10
9.16217e+09
8.4348e+09
7.72483e+09
7.53098e+09
7.41916e+09
7.46629e+09
7.40554e+09
7.34419e+09
7.28612e+09
7.75767e+09
8.27513e+09
8.67186e+09
8.63541e+09
8.60282e+09
8.5671e+09
8.55069e+09
8.5272e+09
8.26562e+09
7.98893e+09
7.83592e+09
7.65411e+09
6.71884e+09
5.83034e+09
4.94268e+09
4.06041e+09
3.27409e+09
2.93771e+09
3.37669e+09
3.8145e+09
4.23884e+09
4.59284e+09
4.94484e+09
5.31926e+09
5.68994e+09
6.05414e+09
6.41017e+09
6.75916e+09
7.10189e+09
7.3749e+09
7.47294e+09
6.59016e+09
5.30803e+09
4.09999e+09
3.18081e+09
2.26023e+09
1.45919e+09
1.25051e+09
1.85941e+09
2.92622e+09
4.64734e+09
1.36269e+10
5.36992e+10
9.40748e+10
4.9058e+10
1.36207e+10
4.3945e+10
4.2827e+10
3.03453e+10
2.79216e+10
4.18897e+10
5.05737e+10
3.7489e+10
9.22515e+09
9.87006e+09
1.08175e+10
1.05238e+10
1.09032e+10
1.13603e+10
1.21731e+10
1.38842e+10
1.12862e+10
5.42142e+09
9.91908e+09
1.42541e+10
1.36731e+10
1.29006e+10
1.2068e+10
1.18932e+10
1.0348e+10
6.91139e+09
4.48256e+09
3.57791e+09
3.29884e+09
3.51493e+09
5.72207e+09
7.86434e+09
7.93403e+09
7.89031e+09
7.75533e+09
7.86649e+09
8.47289e+09
8.80548e+09
8.83968e+09
8.76387e+09
8.31761e+09
7.67907e+09
7.03008e+09
6.37243e+09
5.28632e+09
3.96991e+09
2.89141e+09
2.34209e+09
1.75238e+09
1.11006e+09
4.11817e+08
1.04116e+09
1.74675e+09
2.45605e+09
3.35044e+09
4.29029e+09
4.76609e+09
5.40867e+09
6.12213e+09
6.8181e+09
7.48913e+09
8.16006e+09
8.52682e+09
8.8712e+09
9.4197e+09
9.94279e+09
1.03265e+10
1.07139e+10
1.08834e+10
1.07638e+10
1.0643e+10
1.0561e+10
1.07207e+10
1.10898e+10
1.11585e+10
1.12213e+10
1.12782e+10
1.13706e+10
1.14643e+10
1.15588e+10
1.16546e+10
1.17534e+10
1.17721e+10
1.17756e+10
1.1768e+10
1.12482e+10
1.05448e+10
9.24549e+09
8.64174e+09
8.30498e+09
7.93063e+09
7.52344e+09
7.04379e+09
6.37015e+09
5.75841e+09
5.74746e+09
5.92165e+09
8.19418e+10
9.44365e+10
5.26068e+10
5.21046e+10
4.96361e+10
4.0723e+10
1.47074e+10
4.21225e+09
3.20132e+10
4.72691e+10
4.61239e+10
2.14609e+10
7.04536e+09
1.00299e+10
9.98938e+09
1.00381e+10
9.78684e+09
9.08256e+09
9.87887e+09
1.66471e+10
2.40818e+10
2.45138e+10
2.33288e+10
2.27589e+10
2.17809e+10
2.08644e+10
1.92365e+10
1.47959e+10
1.34456e+10
1.36424e+10
1.46512e+10
1.61291e+10
1.78156e+10
1.91742e+10
1.87114e+10
1.60701e+10
1.30595e+10
1.0601e+10
8.46405e+09
6.48067e+09
4.69499e+09
3.64113e+09
3.71618e+09
4.41676e+09
5.44889e+09
6.67313e+09
7.94877e+09
9.21616e+09
1.04475e+10
1.167e+10
1.29689e+10
1.3887e+10
1.43862e+10
1.50484e+10
1.52935e+10
1.5492e+10
1.57098e+10
1.58995e+10
1.56427e+10
1.55889e+10
1.55698e+10
1.54529e+10
1.53046e+10
1.515e+10
1.48101e+10
1.44502e+10
1.43225e+10
1.42248e+10
1.4121e+10
1.41003e+10
1.49233e+10
1.57484e+10
1.66459e+10
1.7581e+10
1.85177e+10
1.89745e+10
1.8342e+10
1.77182e+10
1.71889e+10
1.67765e+10
1.62679e+10
1.57678e+10
1.5278e+10
1.47975e+10
1.43032e+10
1.38113e+10
1.33512e+10
1.29063e+10
1.24329e+10
1.2865e+10
1.28813e+10
1.22404e+10
1.16379e+10
1.10685e+10
1.07926e+10
1.03694e+10
9.87357e+09
9.82831e+09
1.00092e+10
1.10416e+10
1.53051e+11
1.44925e+11
1.05878e+11
9.22614e+10
6.03104e+10
3.74354e+10
3.33239e+10
3.07345e+10
2.51654e+10
3.55881e+10
3.8533e+10
2.72637e+10
1.415e+10
2.45821e+10
2.29134e+10
2.22084e+10
2.49118e+10
3.13014e+10
3.95975e+10
4.08171e+10
3.79981e+10
3.51671e+10
3.34542e+10
3.07481e+10
2.87521e+10
2.69573e+10
2.38998e+10
1.98384e+10
1.60914e+10
1.49152e+10
1.41903e+10
1.38052e+10
1.31757e+10
1.21887e+10
9.52933e+09
6.77396e+09
4.84039e+09
2.97581e+09
1.51241e+09
1.60618e+09
3.01543e+09
4.66335e+09
6.47582e+09
8.49465e+09
1.06749e+10
1.28869e+10
1.5031e+10
1.71081e+10
1.91216e+10
2.10726e+10
2.30645e+10
2.5075e+10
2.58346e+10
2.54617e+10
2.50748e+10
2.47024e+10
2.42992e+10
2.38114e+10
2.33371e+10
2.2863e+10
2.20239e+10
2.11159e+10
2.02281e+10
1.92348e+10
1.82336e+10
1.75165e+10
1.68014e+10
1.60823e+10
1.53766e+10
1.47019e+10
1.41691e+10
1.38609e+10
1.38315e+10
1.38372e+10
1.377e+10
1.35932e+10
1.33831e+10
1.30393e+10
1.27084e+10
1.23307e+10
1.19247e+10
1.15531e+10
1.11851e+10
1.08172e+10
1.04481e+10
1.01647e+10
9.90229e+09
9.63912e+09
9.37334e+09
9.21565e+09
9.7995e+09
1.00797e+10
9.50311e+09
8.92452e+09
8.38768e+09
7.82314e+09
7.39849e+09
7.2687e+09
7.27257e+09
7.48417e+09
1.73432e+11
1.76753e+11
9.38104e+10
6.92893e+10
3.8884e+10
2.08904e+09
6.21542e+09
1.22658e+10
1.80303e+10
2.33142e+10
3.77379e+10
3.28291e+10
2.17865e+10
4.12805e+09
1.20179e+10
1.43088e+10
2.01244e+10
2.88596e+10
2.73895e+10
2.56302e+10
2.31701e+10
2.10996e+10
1.93112e+10
1.53706e+10
1.08187e+10
6.23231e+09
1.74538e+09
2.58887e+09
3.10375e+09
7.47334e+09
9.07173e+09
1.09948e+10
1.34801e+10
1.61063e+10
1.82757e+10
1.81709e+10
1.75704e+10
1.73312e+10
1.7101e+10
1.68397e+10
1.66273e+10
1.65091e+10
1.64335e+10
1.64894e+10
1.66423e+10
1.67723e+10
1.68861e+10
1.69948e+10
1.7098e+10
1.7219e+10
1.74088e+10
1.75575e+10
1.77072e+10
1.78828e+10
1.80792e+10
1.82375e+10
1.83575e+10
1.8472e+10
1.8497e+10
1.83727e+10
1.82459e+10
1.81185e+10
1.78832e+10
1.75993e+10
1.74529e+10
1.7347e+10
1.72747e+10
1.71721e+10
1.70514e+10
1.69345e+10
1.66964e+10
1.64606e+10
1.62671e+10
1.60873e+10
1.58711e+10
1.56543e+10
1.54411e+10
1.5229e+10
1.4927e+10
1.45234e+10
1.42284e+10
1.39401e+10
1.36527e+10
1.33651e+10
1.30778e+10
1.27875e+10
1.2497e+10
1.22055e+10
1.19109e+10
1.16142e+10
1.16628e+10
1.24104e+10
1.27655e+10
1.25256e+10
1.206e+10
1.16389e+10
1.12687e+10
1.08682e+10
1.05118e+10
1.02564e+10
1.26203e+11
1.7234e+11
9.06267e+10
3.74108e+10
3.67416e+10
2.77604e+10
3.71037e+10
3.80296e+10
3.50023e+10
3.10303e+10
4.52268e+10
5.82165e+10
7.14617e+10
5.9692e+10
2.97604e+10
6.93912e+09
7.16162e+09
7.80655e+09
8.18008e+09
8.3291e+09
7.35342e+09
6.55947e+09
3.55407e+09
3.743e+09
7.17725e+09
1.03823e+10
1.20015e+10
1.04252e+10
9.83414e+09
1.17559e+10
1.39613e+10
1.45319e+10
1.55762e+10
1.62713e+10
1.67746e+10
1.71706e+10
1.72278e+10
1.72599e+10
1.76108e+10
1.78864e+10
1.805e+10
1.82048e+10
1.83407e+10
1.8374e+10
1.82194e+10
1.80451e+10
1.78695e+10
1.76956e+10
1.75247e+10
1.73621e+10
1.72024e+10
1.70381e+10
1.69187e+10
1.68058e+10
1.66588e+10
1.64907e+10
1.63217e+10
1.6158e+10
1.59918e+10
1.58275e+10
1.56658e+10
1.54189e+10
1.50992e+10
1.49065e+10
1.47482e+10
1.45917e+10
1.442e+10
1.42072e+10
1.39878e+10
1.37353e+10
1.34631e+10
1.31385e+10
1.29413e+10
1.27442e+10
1.25393e+10
1.24149e+10
1.23077e+10
1.22695e+10
1.22591e+10
1.22512e+10
1.22446e+10
1.22383e+10
1.22337e+10
1.2231e+10
1.22263e+10
1.22264e+10
1.22311e+10
1.22344e+10
1.22414e+10
1.22509e+10
1.22634e+10
1.26929e+10
1.37343e+10
1.45131e+10
1.45441e+10
1.45915e+10
1.4589e+10
1.44308e+10
1.42482e+10
1.40345e+10
9.60271e+10
1.60878e+11
1.09955e+11
5.39485e+10
3.79479e+10
3.04537e+10
2.53767e+10
3.22008e+10
4.80737e+10
4.94278e+10
4.9343e+10
5.15956e+10
5.00672e+10
5.39412e+10
4.98874e+10
2.58645e+10
8.08862e+09
7.02781e+09
6.88775e+09
6.55326e+09
8.49114e+09
1.21009e+10
1.49109e+10
1.52953e+10
1.50772e+10
1.53015e+10
1.50249e+10
1.5027e+10
1.41161e+10
1.36561e+10
1.554e+10
1.72561e+10
1.76359e+10
1.76916e+10
1.78215e+10
1.78601e+10
1.78082e+10
1.74037e+10
1.70658e+10
1.70205e+10
1.69661e+10
1.69118e+10
1.68563e+10
1.6783e+10
1.66266e+10
1.64947e+10
1.64374e+10
1.63817e+10
1.6327e+10
1.6249e+10
1.61171e+10
1.61992e+10
1.62681e+10
1.62844e+10
1.62827e+10
1.62865e+10
1.62858e+10
1.62868e+10
1.62872e+10
1.62843e+10
1.62336e+10
1.60669e+10
1.59814e+10
1.58559e+10
1.57311e+10
1.56016e+10
1.54676e+10
1.53677e+10
1.52873e+10
1.52025e+10
1.51532e+10
1.51002e+10
1.49748e+10
1.49595e+10
1.4927e+10
1.48892e+10
1.48474e+10
1.48013e+10
1.47501e+10
1.41999e+10
1.46271e+10
1.45531e+10
1.44694e+10
1.43744e+10
1.37692e+10
1.37547e+10
1.40239e+10
1.38838e+10
1.37317e+10
1.35632e+10
1.33511e+10
1.31225e+10
1.32969e+10
1.39844e+10
1.4662e+10
1.44868e+10
1.43856e+10
1.44546e+10
1.45666e+10
1.46144e+10
9.06315e+10
1.56977e+11
1.20573e+11
8.239e+10
5.9945e+10
3.76415e+10
2.55037e+10
2.09419e+10
2.39226e+10
4.49593e+10
4.70175e+10
3.4074e+10
2.62632e+10
2.84521e+10
4.17004e+10
5.23812e+10
3.66649e+10
2.03907e+10
1.56076e+10
1.87832e+10
1.93155e+10
1.98723e+10
2.0632e+10
2.04186e+10
1.9614e+10
1.88292e+10
1.74065e+10
1.73747e+10
1.70256e+10
1.62425e+10
1.6034e+10
1.78813e+10
1.83704e+10
1.79571e+10
1.79464e+10
1.82636e+10
1.84964e+10
1.85929e+10
1.83651e+10
1.82142e+10
1.83211e+10
1.84233e+10
1.85164e+10
1.8605e+10
1.8665e+10
1.86459e+10
1.86407e+10
1.87085e+10
1.87737e+10
1.88324e+10
1.89446e+10
1.91134e+10
1.91687e+10
1.92088e+10
1.92407e+10
1.92748e+10
1.93038e+10
1.93267e+10
1.93489e+10
1.92736e+10
1.89908e+10
1.87868e+10
1.86594e+10
1.85346e+10
1.84166e+10
1.82965e+10
1.82249e+10
1.82106e+10
1.8203e+10
1.82224e+10
1.8261e+10
1.82635e+10
1.80499e+10
1.80009e+10
1.79446e+10
1.78755e+10
1.78011e+10
1.77218e+10
1.76388e+10
1.75471e+10
1.74474e+10
1.73402e+10
1.72219e+10
1.70923e+10
1.69383e+10
1.67669e+10
1.658e+10
1.63817e+10
1.61664e+10
1.55205e+10
1.36641e+10
1.18132e+10
9.96626e+09
8.45169e+09
7.60779e+09
6.84637e+09
5.70192e+09
7.50653e+09
9.274e+09
1.09262e+10
7.42134e+10
1.43409e+11
1.18404e+11
8.61501e+10
7.38148e+10
5.81727e+10
3.92811e+10
2.91361e+10
2.44363e+10
9.48906e+09
2.52831e+10
3.14668e+10
2.58783e+10
2.8652e+10
2.95784e+10
3.76616e+10
4.80157e+10
4.09487e+10
2.80801e+10
1.90291e+10
2.05575e+10
2.05827e+10
2.09476e+10
2.129e+10
2.15619e+10
2.08951e+10
1.99863e+10
1.95589e+10
1.9297e+10
1.95162e+10
1.95435e+10
1.96738e+10
2.13028e+10
2.18999e+10
2.16629e+10
2.15307e+10
2.14802e+10
2.15566e+10
2.15996e+10
2.13938e+10
2.12048e+10
2.12874e+10
2.1361e+10
2.14294e+10
2.14895e+10
2.15252e+10
2.14861e+10
2.14548e+10
2.15017e+10
2.15833e+10
2.16812e+10
2.16452e+10
2.15363e+10
2.14414e+10
2.13419e+10
2.12439e+10
2.10348e+10
2.08007e+10
2.05614e+10
2.01975e+10
1.98464e+10
1.9626e+10
1.94339e+10
1.93388e+10
1.92448e+10
1.91499e+10
1.90578e+10
1.89671e+10
1.88762e+10
1.88045e+10
1.8746e+10
1.86828e+10
1.8549e+10
1.83471e+10
1.82814e+10
1.82111e+10
1.81401e+10
1.80676e+10
1.7993e+10
1.69159e+10
1.51657e+10
1.34234e+10
1.16932e+10
1.02141e+10
8.75399e+09
8.52017e+09
9.53227e+09
1.05424e+10
1.14711e+10
1.25218e+10
1.38594e+10
1.49664e+10
1.6188e+10
1.73995e+10
1.76969e+10
1.78463e+10
1.71083e+10
1.73233e+10
1.6666e+10
1.92204e+10
5.39733e+10
1.14166e+11
1.13431e+11
8.70234e+10
6.7046e+10
5.28121e+10
4.33156e+10
4.26359e+10
2.29526e+10
3.76884e+10
3.9614e+10
2.16284e+10
1.37811e+10
1.89016e+10
2.32629e+10
2.47473e+10
2.65204e+10
3.33761e+10
3.37617e+10
2.31808e+10
1.51595e+10
1.14087e+10
1.68448e+10
2.19009e+10
2.45274e+10
2.42114e+10
2.42811e+10
2.38052e+10
2.33667e+10
2.36549e+10
2.36097e+10
2.29175e+10
2.30573e+10
2.46927e+10
2.53303e+10
2.48931e+10
2.45441e+10
2.43148e+10
2.4042e+10
2.36558e+10
2.30576e+10
2.26918e+10
2.25651e+10
2.24668e+10
2.23698e+10
2.227e+10
2.21598e+10
2.19747e+10
2.18286e+10
2.1812e+10
2.17366e+10
2.16746e+10
2.15722e+10
2.13647e+10
2.11175e+10
2.08609e+10
2.06119e+10
2.0379e+10
2.00745e+10
1.97677e+10
1.96672e+10
1.95706e+10
1.94746e+10
1.93784e+10
1.92843e+10
1.91914e+10
1.90988e+10
1.90076e+10
1.81175e+10
1.67236e+10
1.52926e+10
1.38508e+10
1.22422e+10
9.37756e+09
1.00427e+10
1.11958e+10
1.23337e+10
1.34552e+10
1.44375e+10
1.56395e+10
1.68556e+10
1.79213e+10
1.91759e+10
2.04209e+10
2.15778e+10
2.17907e+10
2.11957e+10
2.02797e+10
1.93651e+10
1.76689e+10
1.68873e+10
1.61757e+10
1.5783e+10
1.56492e+10
1.56497e+10
1.63328e+10
1.70081e+10
1.47541e+10
1.29198e+10
1.34478e+10
5.45796e+10
9.27264e+10
9.99113e+10
8.5299e+10
7.68374e+10
6.71759e+10
5.37271e+10
2.61391e+10
5.05729e+10
5.91305e+10
5.74281e+10
4.88291e+10
3.82887e+10
2.80899e+10
1.77054e+10
1.07226e+10
1.20831e+10
1.41533e+10
1.80324e+10
2.04097e+10
1.35371e+10
5.05071e+09
1.06021e+10
8.31244e+09
6.65745e+09
1.02239e+10
1.43508e+10
1.78301e+10
2.11991e+10
2.3981e+10
2.55308e+10
2.49124e+10
2.36102e+10
2.34513e+10
2.45562e+10
2.53935e+10
2.5306e+10
2.51065e+10
2.48362e+10
2.46244e+10
2.42831e+10
2.36847e+10
2.31147e+10
2.2725e+10
2.24462e+10
2.23054e+10
2.22094e+10
2.21222e+10
2.20162e+10
2.18777e+10
2.16985e+10
2.14437e+10
2.12015e+10
2.12525e+10
2.13448e+10
2.05408e+10
1.95171e+10
1.78064e+10
1.53532e+10
1.29856e+10
1.06437e+10
1.01813e+10
1.13393e+10
1.25406e+10
1.38149e+10
1.48837e+10
1.57982e+10
1.66463e+10
1.75534e+10
1.84045e+10
1.91492e+10
1.99106e+10
2.11505e+10
2.1527e+10
2.27236e+10
2.39062e+10
2.38937e+10
2.276e+10
2.11559e+10
1.94484e+10
1.84177e+10
1.75145e+10
1.69777e+10
1.69232e+10
1.63248e+10
1.45568e+10
1.20268e+10
9.53254e+09
7.51343e+09
6.82613e+09
6.04103e+09
5.12751e+09
4.35752e+09
5.72043e+09
7.08445e+09
7.46272e+09
7.87472e+09
8.35758e+09
8.45128e+09
7.73071e+09
8.76e+10
1.08549e+11
1.00411e+11
9.40998e+10
8.34523e+10
6.09311e+10
3.1953e+10
6.31076e+10
6.71133e+10
6.56609e+10
6.07862e+10
5.71155e+10
5.74637e+10
5.51914e+10
4.50872e+10
3.6152e+10
2.99634e+10
2.37327e+10
1.44821e+10
8.57123e+09
8.23735e+09
7.74792e+09
1.16756e+10
2.17891e+10
2.98487e+10
3.14533e+10
2.52491e+10
1.98789e+10
1.51238e+10
1.12667e+10
6.47402e+09
3.59419e+09
2.09401e+09
2.37934e+09
2.59544e+09
2.70802e+09
4.66664e+09
5.83508e+09
6.52239e+09
7.12834e+09
7.48024e+09
7.24687e+09
6.57194e+09
5.78346e+09
4.88293e+09
3.89483e+09
2.90789e+09
2.54897e+09
3.53743e+09
4.538e+09
5.54255e+09
6.71934e+09
8.21624e+09
9.83742e+09
1.09825e+10
1.21656e+10
1.34572e+10
1.4745e+10
1.60597e+10
1.71502e+10
1.77365e+10
1.89455e+10
2.05266e+10
2.17583e+10
2.28982e+10
2.39673e+10
2.31637e+10
2.1431e+10
1.96998e+10
1.84733e+10
1.72568e+10
1.61179e+10
1.62066e+10
1.74264e+10
1.53123e+10
1.22351e+10
8.94563e+09
6.4237e+09
5.27243e+09
5.6138e+09
5.86424e+09
6.88766e+09
8.36845e+09
1.08982e+10
1.38662e+10
1.54963e+10
1.60504e+10
1.65889e+10
1.72053e+10
1.6609e+10
1.56792e+10
1.47385e+10
1.4159e+10
1.44135e+10
1.46623e+10
1.48932e+10
1.51156e+10
1.52809e+10
1.53155e+10
1.48057e+10
1.01738e+11
1.20675e+11
1.17642e+11
9.72324e+10
5.80463e+10
2.71633e+10
4.45319e+10
4.59372e+10
4.4045e+10
4.179e+10
3.84155e+10
3.84609e+10
4.03273e+10
4.32333e+10
4.57626e+10
4.67577e+10
4.25594e+10
3.34505e+10
2.65958e+10
2.01145e+10
1.6616e+10
1.34339e+10
9.92241e+09
8.27818e+09
9.66051e+09
1.15555e+10
1.80742e+10
2.29867e+10
2.52786e+10
2.528e+10
2.3843e+10
2.01743e+10
1.7623e+10
1.53806e+10
1.40228e+10
1.26489e+10
1.00733e+10
6.9084e+09
5.05487e+09
3.3873e+09
1.51213e+09
1.08224e+09
2.7362e+09
4.26224e+09
5.6675e+09
6.838e+09
8.22673e+09
1.01211e+10
1.24269e+10
1.37809e+10
1.52101e+10
1.6733e+10
1.7836e+10
1.70545e+10
1.60078e+10
1.56919e+10
1.58694e+10
1.61158e+10
1.61999e+10
1.63113e+10
1.69504e+10
1.64269e+10
1.42699e+10
1.20842e+10
9.90819e+09
6.86906e+09
4.75121e+09
4.61107e+09
5.16528e+09
5.77365e+09
7.22646e+09
8.32474e+09
1.02386e+10
1.28102e+10
1.55268e+10
1.84561e+10
2.03027e+10
2.08894e+10
2.08484e+10
1.96394e+10
1.85441e+10
1.75191e+10
1.68056e+10
1.69637e+10
1.70995e+10
1.72102e+10
1.73255e+10
1.74527e+10
1.7586e+10
1.76959e+10
1.7159e+10
1.64852e+10
1.58282e+10
1.51793e+10
1.44534e+10
1.37201e+10
1.31247e+10
1.24779e+10
1.16386e+10
1.07489e+10
1.03649e+11
1.22592e+11
1.06947e+11
5.90829e+10
1.70451e+10
1.00894e+10
1.29774e+10
1.27061e+10
1.47546e+10
1.262e+10
3.38301e+09
3.46262e+09
4.02012e+09
3.87642e+09
2.2111e+09
1.9428e+09
2.20102e+09
2.65171e+09
2.93048e+09
3.14702e+09
4.10342e+09
1.06053e+10
1.71606e+10
2.29308e+10
2.7176e+10
3.02827e+10
2.52692e+10
2.08598e+10
1.68506e+10
1.44334e+10
1.20745e+10
1.02195e+10
9.86926e+09
9.81591e+09
9.87751e+09
1.0125e+10
1.01502e+10
1.04232e+10
1.10092e+10
1.19006e+10
1.26874e+10
1.37225e+10
1.49082e+10
1.62376e+10
1.75088e+10
1.90114e+10
2.01613e+10
2.04984e+10
1.88046e+10
1.70977e+10
1.54051e+10
1.33508e+10
1.056e+10
7.8611e+09
5.69791e+09
3.50455e+09
1.32434e+09
2.31979e+09
4.91028e+09
6.47187e+09
8.17694e+09
1.0571e+10
1.31612e+10
1.57367e+10
1.82958e+10
2.08384e+10
2.14916e+10
2.13919e+10
2.0518e+10
1.96579e+10
1.8748e+10
1.76343e+10
1.75695e+10
1.7742e+10
1.79353e+10
1.80966e+10
1.83838e+10
1.85883e+10
1.87108e+10
1.88718e+10
1.89714e+10
1.81074e+10
1.71976e+10
1.62906e+10
1.53863e+10
1.45604e+10
1.38257e+10
1.30967e+10
1.22895e+10
1.12483e+10
1.02407e+10
9.62334e+09
9.0425e+09
8.48952e+09
7.9395e+09
7.39395e+09
6.77061e+09
6.09831e+09
5.46565e+09
5.55427e+09
1.0391e+11
9.63513e+10
4.69969e+10
7.29264e+09
2.01064e+09
6.77437e+08
5.68547e+09
9.31639e+09
1.13162e+10
1.303e+10
1.34205e+10
1.66029e+10
1.91983e+10
2.10753e+10
2.22741e+10
2.28507e+10
2.35178e+10
2.41196e+10
2.46094e+10
2.50169e+10
2.53467e+10
2.56018e+10
2.57858e+10
2.55729e+10
2.50668e+10
2.49034e+10
2.56161e+10
2.91793e+10
2.94868e+10
2.7248e+10
2.46821e+10
2.21328e+10
1.96988e+10
1.64956e+10
1.36713e+10
1.09601e+10
9.65339e+09
8.40935e+09
7.81195e+09
6.9423e+09
6.03833e+09
4.95707e+09
4.00846e+09
3.27648e+09
3.07203e+09
3.35101e+09
4.67559e+09
6.69349e+09
9.11907e+09
1.14208e+10
1.36865e+10
1.59721e+10
1.78473e+10
1.83143e+10
1.87738e+10
1.9139e+10
1.9556e+10
1.98968e+10
1.90633e+10
1.8201e+10
1.77785e+10
1.80322e+10
1.8283e+10
1.84397e+10
1.85089e+10
1.86857e+10
1.9076e+10
1.93954e+10
1.96007e+10
1.95758e+10
1.94173e+10
1.86059e+10
1.76986e+10
1.67889e+10
1.59461e+10
1.51584e+10
1.43758e+10
1.36882e+10
1.30341e+10
1.23507e+10
1.1384e+10
1.04182e+10
9.57182e+09
8.72899e+09
7.87636e+09
7.0069e+09
6.43464e+09
5.89339e+09
5.35171e+09
4.80928e+09
4.9775e+09
5.2984e+09
5.49636e+09
5.62976e+09
5.74886e+09
5.78749e+09
5.51567e+09
4.98398e+09
4.38412e+09
3.84851e+09
6.48131e+10
3.59343e+10
1.30589e+10
6.26306e+09
1.65523e+09
2.96735e+08
4.32741e+09
8.22233e+09
8.67279e+09
1.01455e+10
8.18072e+09
1.0197e+10
9.92826e+09
1.06592e+10
1.22533e+10
1.30291e+10
1.36483e+10
1.41857e+10
1.46244e+10
1.49838e+10
1.52716e+10
1.54902e+10
1.56042e+10
1.51746e+10
1.52521e+10
1.55509e+10
1.61225e+10
1.61811e+10
1.60957e+10
1.59963e+10
1.58548e+10
1.54719e+10
1.26186e+10
9.89228e+09
7.28872e+09
4.86289e+09
3.85838e+09
3.33952e+09
4.09498e+09
5.87093e+09
7.76832e+09
9.74362e+09
1.17732e+10
1.30142e+10
1.41239e+10
1.52573e+10
1.59122e+10
1.64346e+10
1.70714e+10
1.76949e+10
1.82943e+10
1.87297e+10
1.9156e+10
1.92778e+10
1.96398e+10
2.00053e+10
2.01477e+10
2.02664e+10
2.02814e+10
1.95417e+10
1.87797e+10
1.79992e+10
1.71875e+10
1.63423e+10
1.55122e+10
1.47406e+10
1.41548e+10
1.33595e+10
1.26407e+10
1.19164e+10
1.09786e+10
1.02245e+10
9.59146e+09
8.86412e+09
8.14236e+09
7.43563e+09
6.70873e+09
6.00914e+09
5.35765e+09
4.57447e+09
3.80549e+09
4.01076e+09
4.24614e+09
4.47821e+09
4.61931e+09
4.76538e+09
4.94489e+09
5.01746e+09
5.08732e+09
5.10702e+09
5.05707e+09
4.50401e+09
3.88114e+09
3.27488e+09
2.65107e+09
2.00137e+09
1.31258e+09
7.61738e+08
4.8664e+08
1.09922e+09
1.63622e+10
1.54404e+10
1.23847e+10
6.43994e+09
1.83141e+09
9.92292e+08
2.83653e+09
7.53333e+09
6.63404e+09
8.69575e+09
8.18666e+09
1.02617e+10
9.85578e+09
9.94385e+09
1.0527e+10
1.06901e+10
1.0511e+10
1.04352e+10
1.03792e+10
1.03017e+10
1.02397e+10
1.01775e+10
9.98956e+09
9.3337e+09
9.27981e+09
9.79377e+09
9.87552e+09
9.87413e+09
9.43345e+09
8.99859e+09
8.58665e+09
7.71448e+09
7.5415e+09
7.3294e+09
7.11867e+09
6.9043e+09
5.20692e+09
3.14874e+09
1.45255e+09
2.17783e+09
3.98161e+09
5.47975e+09
6.65823e+09
7.92412e+09
9.19774e+09
1.03047e+10
1.13052e+10
1.2178e+10
1.22971e+10
1.24196e+10
1.26978e+10
1.29388e+10
1.31121e+10
1.291e+10
1.25858e+10
1.22056e+10
1.17588e+10
1.1288e+10
1.06352e+10
9.97089e+09
9.25108e+09
8.60762e+09
7.9696e+09
7.34308e+09
6.74646e+09
6.18618e+09
5.58458e+09
4.87956e+09
4.17599e+09
3.43852e+09
2.71663e+09
2.59114e+09
2.56845e+09
2.52949e+09
2.40562e+09
2.34133e+09
2.45656e+09
2.56118e+09
2.68395e+09
2.93979e+09
3.20071e+09
3.41939e+09
3.50565e+09
3.54085e+09
3.55616e+09
3.5861e+09
3.0562e+09
2.48551e+09
1.90568e+09
1.29504e+09
5.23594e+08
2.72993e+08
7.61623e+08
1.29694e+09
1.84153e+09
2.33242e+09
2.73341e+09
2.86244e+09
2.84501e+09
2.72078e+09
7.88197e+09
1.49674e+10
1.19003e+10
6.54592e+09
1.97321e+09
1.25165e+09
1.63973e+09
6.12621e+09
5.95821e+09
7.49719e+09
7.95076e+09
1.02775e+10
9.8705e+09
9.7225e+09
9.92903e+09
1.04841e+10
1.07478e+10
1.05372e+10
1.03992e+10
9.97215e+09
9.54676e+09
9.12046e+09
8.32532e+09
7.43315e+09
7.34565e+09
7.46283e+09
7.04833e+09
6.5648e+09
6.1809e+09
5.7316e+09
5.12071e+09
4.16945e+09
4.12073e+09
4.00039e+09
3.64877e+09
3.41068e+09
2.92429e+09
2.78551e+09
2.81282e+09
2.71415e+09
2.74366e+09
2.87708e+09
3.12266e+09
2.6213e+09
2.30523e+09
2.01753e+09
1.67343e+09
9.48416e+08
3.51971e+08
4.89698e+08
6.78396e+08
6.99588e+08
4.17292e+08
2.48043e+08
4.73438e+08
8.01836e+08
9.68954e+08
1.02119e+09
1.2712e+09
1.08331e+09
9.61891e+08
9.49586e+08
8.30339e+08
6.41015e+08
6.45188e+08
8.77899e+08
1.04503e+09
1.03621e+09
1.0228e+09
1.01996e+09
1.00653e+09
9.47041e+08
8.96393e+08
9.17111e+08
1.11931e+09
1.57699e+09
1.88641e+09
1.94144e+09
2.02477e+09
2.04257e+09
1.97652e+09
1.57947e+09
1.23543e+09
9.9343e+08
9.5358e+08
8.29747e+08
1.21257e+09
1.65714e+09
2.08238e+09
2.45631e+09
2.7585e+09
2.80007e+09
2.84608e+09
2.90043e+09
2.8998e+09
2.84402e+09
2.66504e+09
2.46945e+09
2.24994e+09
2.05744e+09
7.77634e+09
1.44457e+10
1.1543e+10
6.28745e+09
2.22607e+09
1.7092e+09
8.98299e+08
4.53088e+09
5.59368e+09
7.15088e+09
7.67681e+09
9.87788e+09
9.07783e+09
8.6875e+09
8.21089e+09
8.03934e+09
8.10332e+09
7.79462e+09
7.22562e+09
6.6758e+09
6.22671e+09
5.71214e+09
4.63144e+09
4.02559e+09
4.26925e+09
4.09451e+09
3.70264e+09
3.37295e+09
3.55821e+09
3.60073e+09
3.14041e+09
2.97022e+09
3.39291e+09
4.25931e+09
4.5142e+09
4.54864e+09
4.58272e+09
4.64661e+09
4.98596e+09
5.32149e+09
5.593e+09
5.9308e+09
6.16239e+09
6.38598e+09
6.63714e+09
6.94097e+09
7.2314e+09
7.31722e+09
6.70478e+09
6.03417e+09
5.65225e+09
5.53179e+09
5.44412e+09
5.15701e+09
4.92528e+09
4.68368e+09
4.49548e+09
4.1953e+09
4.01112e+09
3.84081e+09
3.69607e+09
3.70813e+09
3.75499e+09
3.74918e+09
3.67549e+09
3.35865e+09
2.98028e+09
2.6162e+09
2.24624e+09
1.99316e+09
1.9953e+09
1.96564e+09
1.8124e+09
1.73333e+09
1.74473e+09
1.74865e+09
1.70412e+09
1.69544e+09
1.74464e+09
1.67187e+09
1.24671e+09
1.16345e+09
1.51633e+09
1.97063e+09
2.41258e+09
2.79485e+09
2.84746e+09
2.84325e+09
2.83943e+09
2.83608e+09
2.83333e+09
2.88152e+09
2.86892e+09
2.69057e+09
2.49394e+09
2.27532e+09
2.08004e+09
1.9134e+09
1.87744e+09
1.99553e+09
7.59151e+09
1.38594e+10
1.12281e+10
6.08097e+09
2.36001e+09
2.14373e+09
1.14603e+09
1.53775e+09
2.69542e+09
3.6309e+09
4.7627e+09
7.3359e+09
6.40402e+09
5.89548e+09
5.4703e+09
5.07213e+09
4.68687e+09
4.4493e+09
4.40164e+09
4.53411e+09
4.66558e+09
4.60733e+09
3.95396e+09
4.43015e+09
5.38083e+09
5.83277e+09
6.27598e+09
6.79527e+09
7.13493e+09
7.3938e+09
7.08155e+09
7.29514e+09
7.38234e+09
7.52763e+09
7.46206e+09
7.37533e+09
7.60911e+09
7.8514e+09
8.09997e+09
8.34953e+09
8.33035e+09
8.24151e+09
8.0007e+09
7.89249e+09
7.71051e+09
7.51314e+09
7.50931e+09
7.55098e+09
7.56069e+09
7.25154e+09
6.74048e+09
6.16931e+09
5.83667e+09
5.54344e+09
5.47812e+09
5.48506e+09
5.35981e+09
5.23297e+09
4.97289e+09
4.67652e+09
4.17456e+09
3.77675e+09
3.45829e+09
3.16003e+09
2.87048e+09
2.94392e+09
2.78098e+09
2.53814e+09
2.32743e+09
2.13626e+09
2.1559e+09
2.27368e+09
2.4161e+09
2.57855e+09
2.55786e+09
2.52881e+09
2.70549e+09
3.0328e+09
3.38783e+09
3.73109e+09
3.93903e+09
3.79918e+09
3.62373e+09
3.52093e+09
3.46429e+09
3.4102e+09
3.35954e+09
3.31154e+09
3.24758e+09
3.07546e+09
2.88519e+09
2.68611e+09
2.43336e+09
2.3457e+09
2.26328e+09
2.23504e+09
2.33928e+09
2.45584e+09
2.57965e+09
2.70031e+09
7.16672e+09
1.34715e+10
1.11829e+10
6.4667e+09
3.32751e+09
3.32519e+09
3.3214e+09
1.64524e+09
1.74931e+09
2.13437e+09
4.42354e+09
7.1524e+09
6.29778e+09
6.07192e+09
5.8473e+09
5.77682e+09
5.89755e+09
6.34396e+09
7.28293e+09
8.1293e+09
8.58569e+09
8.53509e+09
8.23011e+09
9.17752e+09
9.66267e+09
9.90921e+09
1.01619e+10
1.03621e+10
1.03443e+10
1.01364e+10
1.02051e+10
9.94662e+09
9.26239e+09
8.6124e+09
8.33324e+09
8.04035e+09
7.78332e+09
7.52487e+09
7.29228e+09
7.08631e+09
6.88413e+09
6.50493e+09
6.33604e+09
6.19835e+09
6.10402e+09
5.97926e+09
5.78678e+09
5.71382e+09
5.86392e+09
6.10144e+09
6.27775e+09
6.17912e+09
6.03253e+09
5.80673e+09
5.82172e+09
5.70672e+09
5.43407e+09
5.22587e+09
4.77238e+09
4.30329e+09
3.77208e+09
3.08545e+09
2.48358e+09
2.1726e+09
2.15177e+09
2.34766e+09
2.53106e+09
2.74299e+09
2.97586e+09
2.99506e+09
3.08714e+09
3.37521e+09
3.68121e+09
3.98858e+09
4.40136e+09
4.611e+09
4.68322e+09
4.75493e+09
4.83391e+09
4.92207e+09
4.92871e+09
4.87393e+09
4.62329e+09
4.30455e+09
4.10956e+09
3.98333e+09
3.72919e+09
3.47633e+09
3.36096e+09
3.31489e+09
3.26866e+09
3.178e+09
3.15113e+09
3.26226e+09
3.36147e+09
3.4617e+09
3.90298e+09
4.92558e+09
5.80507e+09
6.85529e+09
6.52084e+09
1.19341e+10
9.95118e+09
6.21732e+09
3.41932e+09
2.72726e+09
2.39693e+09
3.04887e+09
6.3637e+09
6.45483e+09
8.04776e+09
9.8903e+09
9.40953e+09
9.44082e+09
9.60593e+09
9.77602e+09
9.82742e+09
1.01025e+10
1.07236e+10
1.10747e+10
1.1274e+10
1.0663e+10
1.07491e+10
1.11951e+10
1.09391e+10
1.05188e+10
1.00654e+10
9.61472e+09
9.19784e+09
8.32278e+09
7.88938e+09
7.34086e+09
6.79834e+09
6.60812e+09
6.88165e+09
6.72057e+09
6.47571e+09
6.22129e+09
5.96133e+09
5.7107e+09
5.61861e+09
5.48025e+09
5.39523e+09
5.40561e+09
5.50804e+09
5.62087e+09
5.72748e+09
5.81046e+09
5.82987e+09
5.87265e+09
5.77298e+09
5.58929e+09
5.20926e+09
4.7297e+09
4.2923e+09
4.18504e+09
4.10097e+09
3.83046e+09
3.70064e+09
3.5781e+09
3.70015e+09
3.75846e+09
3.75416e+09
3.68019e+09
3.47215e+09
3.44959e+09
3.59301e+09
3.75063e+09
4.05323e+09
4.36132e+09
4.37005e+09
4.45531e+09
4.55429e+09
4.62375e+09
4.69647e+09
4.7927e+09
4.8904e+09
4.88883e+09
4.85786e+09
4.81761e+09
4.78654e+09
4.73861e+09
4.53045e+09
4.25118e+09
3.96464e+09
3.75861e+09
3.721e+09
3.68808e+09
3.69546e+09
3.81756e+09
3.96464e+09
4.27316e+09
5.34601e+09
6.2692e+09
7.18573e+09
6.72478e+09
6.40633e+09
6.07726e+09
5.4424e+09
3.44453e+09
1.02677e+10
1.2943e+10
1.0385e+10
5.88035e+09
2.59293e+09
2.43558e+09
3.95542e+09
8.99989e+09
1.13792e+10
1.05421e+10
1.03986e+10
1.20398e+10
1.13962e+10
1.1299e+10
1.11043e+10
1.07011e+10
1.03743e+10
1.02126e+10
9.86217e+09
9.63456e+09
9.37262e+09
8.68128e+09
9.24545e+09
9.18963e+09
8.89068e+09
8.58298e+09
8.32112e+09
8.04915e+09
7.06786e+09
6.04157e+09
5.45515e+09
5.47998e+09
5.3778e+09
5.35169e+09
5.59712e+09
5.89909e+09
5.86974e+09
5.84069e+09
5.83327e+09
5.84439e+09
5.77495e+09
5.77113e+09
5.70257e+09
5.70004e+09
5.7243e+09
5.64828e+09
5.34161e+09
5.04808e+09
4.75331e+09
4.45862e+09
4.25189e+09
3.97065e+09
3.60143e+09
3.33405e+09
2.93527e+09
2.95209e+09
3.3697e+09
3.90303e+09
4.31211e+09
4.6993e+09
5.01621e+09
5.32869e+09
5.66422e+09
5.81807e+09
5.866e+09
5.56632e+09
5.33102e+09
5.08611e+09
4.97014e+09
4.92282e+09
4.85341e+09
4.79237e+09
4.78493e+09
4.87753e+09
4.86418e+09
4.83862e+09
4.81448e+09
4.79166e+09
4.62448e+09
4.5729e+09
4.52008e+09
4.51748e+09
4.50758e+09
4.43837e+09
4.28016e+09
4.07374e+09
4.0821e+09
5.2186e+09
6.20802e+09
6.196e+09
5.53715e+09
5.22121e+09
5.13646e+09
4.56196e+09
2.67511e+09
2.1873e+09
1.9653e+09
2.36325e+09
3.47148e+09
5.12866e+09
1.8772e+10
9.07414e+09
1.10204e+10
6.31719e+09
3.2009e+09
3.18839e+09
8.2622e+09
1.3331e+10
1.32215e+10
1.16451e+10
1.1865e+10
1.11459e+10
1.0118e+10
9.65363e+09
9.19583e+09
8.88908e+09
8.58296e+09
8.38159e+09
8.17255e+09
8.06594e+09
7.3904e+09
7.07268e+09
7.67334e+09
7.62863e+09
7.40072e+09
7.30498e+09
7.23304e+09
6.52104e+09
5.32976e+09
4.88298e+09
4.85529e+09
5.02679e+09
5.34161e+09
5.37401e+09
5.4451e+09
5.9936e+09
6.10483e+09
6.13054e+09
6.15447e+09
6.15671e+09
6.12985e+09
5.80456e+09
5.34487e+09
4.83311e+09
4.42071e+09
4.1398e+09
3.87831e+09
3.49489e+09
3.17298e+09
3.05767e+09
3.28998e+09
3.67891e+09
4.02403e+09
4.27466e+09
4.43076e+09
4.53526e+09
4.7153e+09
5.06745e+09
5.38637e+09
5.79227e+09
6.0152e+09
6.17219e+09
6.25782e+09
6.23499e+09
6.21868e+09
6.2146e+09
6.22462e+09
6.20686e+09
6.11546e+09
6.06654e+09
6.02792e+09
5.87783e+09
5.70189e+09
5.54342e+09
5.51139e+09
5.3617e+09
5.21961e+09
5.11193e+09
4.98924e+09
4.85872e+09
4.80906e+09
4.84818e+09
5.92551e+09
6.24819e+09
5.5819e+09
4.85325e+09
4.20789e+09
4.29857e+09
2.75234e+09
1.49819e+09
1.73758e+09
1.87174e+09
2.91407e+09
4.36561e+09
5.98295e+09
6.29971e+09
6.50472e+09
6.73502e+09
6.93557e+09
7.13642e+09
1.9219e+10
1.5379e+10
8.10543e+09
5.76065e+09
2.16785e+09
4.84168e+09
1.19442e+10
1.38231e+10
1.1571e+10
1.08692e+10
1.23925e+10
8.36077e+09
8.61123e+09
8.30778e+09
8.02626e+09
7.74823e+09
7.47459e+09
7.36271e+09
7.33382e+09
7.3278e+09
6.52821e+09
6.68377e+09
7.00223e+09
7.12972e+09
7.27038e+09
7.09132e+09
6.38626e+09
5.36936e+09
4.87466e+09
4.94557e+09
5.00162e+09
5.05031e+09
5.35408e+09
5.69458e+09
5.74145e+09
6.0311e+09
6.35678e+09
5.95093e+09
5.51099e+09
4.97437e+09
4.65079e+09
4.41835e+09
4.04487e+09
3.54255e+09
3.25002e+09
3.2792e+09
3.58262e+09
3.8928e+09
4.10537e+09
4.30116e+09
4.61513e+09
4.98217e+09
5.36598e+09