/*--------------------------------*- C++ -*----------------------------------*\
| =========                 |                                                 |
| \\      /  F ield         | foam-extend: Open Source CFD                    |
|  \\    /   O peration     | Version:     4.1                                |
|   \\  /    A nd           | Web:         http://www.foam-extend.org         |
|    \\/     M anipulation  |                                                 |
\*---------------------------------------------------------------------------*/
FoamFile
{
    version     2.0;
    format      ascii;
    class       volScalarField;
    location    "1";
    object      epsilonEq;
}
// * * * * * * * * * * * * * * * * * * * * * * * * * * * * * * * * * * * * * //

dimensions      [0 0 0 0 0 0 0];

internalField   nonuniform List<scalar> 
1000
(
0.01644472076393751
0.006903976052471599
0.005806401538097356
0.002317644351263694
0.00208244750078813
0.003198662900991654
0.003838497126073231
0.003356174075878912
0.00307900788322479
0.004470076372164689
0.01394806748425948
0.006091586458371426
0.005852120407374786
0.006411524447943676
0.005969871909126851
0.007596545316413509
0.007549143706202243
0.007775397916071727
0.006713161339564448
0.006159416065950159
0.009276701340311284
0.01158753686670696
0.007660377446556053
0.004108500293568523
0.00405597114968451
0.002632789823390175
0.0009174235234560803
0.002841075401876573
0.004734878172115024
0.007765969309623066
0.007016906977049154
0.009408871112448465
0.01154722633386701
0.01298452955726976
0.01322999408873967
0.01297216326534818
0.01239965594970886
0.01356406000031228
0.01820990779094968
0.009082272697277767
0.004290737874869595
0.004979733377242081
0.01150762711442404
0.01340830553147998
0.01334407650596774
0.0137521232047126
0.01216297567262953
0.01094586814144785
0.004578515406694283
0.001863042191232247
0.003939603843043092
0.005081972670619961
0.002308786363414546
0.002381039581075166
0.002938800200681955
0.001888935057007697
0.0008267023658877457
0.001544276545415998
0.001757592635782023
0.0005293993507152581
0.003096975455308357
0.004288604023598984
0.004558744589182211
0.004364126730134826
0.00130197664156514
0.0008891256376373635
0.001033977762203833
0.001019350123569369
0.001204415125139479
0.0007737987810876334
0.002676978366633539
0.005022821596550231
0.005053982467840354
0.002415307150253191
0.0005452146611326252
0.0006878644188478447
0.0008478330656390637
0.001185467804862823
0.001588295773935938
0.0008718195103944405
0.03568521951175551
0.004831716478949274
0.005917163048451918
0.002593405219988715
0.001924457680680159
0.001151487138192296
0.001276290161859568
0.001686425125843806
0.001649424255317469
0.00140017347112445
0.04720122425961188
0.03210887773433246
0.004787553556351234
0.005776539662778666
0.001116289423875426
0.002881889590851052
0.002346354457532702
0.001886566668687895
0.0020653520868108
0.001218909450651524
0.005877653376265132
0.002950649205681899
0.0007920094700514515
0.0003592518837201796
6.153201573129937e-05
0.0004818880286878691
0.0004280759185756592
0.0001962601929374505
0.0005948718223316023
0.001498566128635733
0.00606764856766909
0.00261625072669098
0.002414329244398592
0.003795024885323788
0.002237632635744921
0.0004910038838351465
0.0008195821283600009
0.000468733964434555
0.0005279248975158055
0.001529222836528383
0.0011707726485237
0.007830391050279188
0.01267902553030106
0.01003455226392266
0.00967700210097497
0.008467202638049504
0.00756369690977261
0.001681899111660768
0.0007465874964776214
0.001055957399526817
0.007590705644180416
0.01698689784622147
0.0085899335633763
0.003680077402669439
0.004389133210111996
0.005122280518918424
0.008897053301786827
0.009945775431652013
0.004743660666811212
0.002065579703338824
0.009478067637708098
0.00817077113540555
0.005725198134358034
0.005066445353184244
0.005619047059801674
0.005895587770742641
0.005489408339494691
0.0014968039309162
0.003935232688576554
0.00622114291968252
0.009849334154080959
0.007577735281965352
0.006334453859105876
0.005925760727153421
0.006816447289751621
0.006516872876535637
0.004302645684767681
0.003368354555012491
0.00244283029578038
0.002046526372391543
0.009535358895898965
0.008385836902347184
0.00341587446900368
0.004343847147633766
0.007003678239715046
0.005123038281484223
0.007431308158683874
0.004967164031313151
0.003921067585750724
0.001627261000432013
0.008364268215945351
0.00792547849323506
0.01306534531372941
0.005715323980071288
0.003854455275446578
0.002204164235354359
0.002828570791926027
0.006284273312870245
0.005784887415233183
0.004871138388154403
0.003369268881788483
0.01946083787408323
0.01155609021169804
0.01322624824459233
0.006419233428953807
0.005502630222019181
0.003037731832694381
0.005901755541600209
0.005675828928663166
0.008771562013281381
0.02341745048867461
0.01428089500812999
0.008324281143773231
0.004000431263171298
0.005440698741849749
0.003843501107507993
0.002955646567442979
0.0028898263883305
0.005945414161452242
0.00155554622897358
0.002054793832654383
0.001926063952944843
0.0007887958081801361
0.000301297333326096
0.000344663331225172
0.0003601053669977075
0.0003588142841120676
0.0003306124499944511
0.001091036605013458
0.0005789701428497626
0.0008753209136557269
0.0009447729409318005
0.001152251558959226
0.001320846173405115
0.00138907598633174
0.001366624482847908
0.001185883058174597
0.001116243381250909
0.0009532780796116325
0.0003905086837995978
0.002177335327439833
0.00210304899174574
0.0009155386919920784
0.0003134902842130473
0.0003398629774037795
0.00058631181191548
0.0003023791421310339
0.000841920584217999
0.001461317894294921
0.0009384153915114475
0.001140436896090505
0.001269614765805637
0.00144766861673523
0.00172389864708274
0.001849876536338176
0.001878116216068541
0.001755626025214426
0.001660477125303128
0.001760662574407053
0.00114862269174967
0.001865014769655975
0.002256323520746177
0.001095211695313671
0.0001290693968660271
0.0001934763610372831
0.0004970360489611949
0.0002823672675164066
0.0006008444519265756
0.001266187080671795
0.001400255663567478
0.0005619473792617506
0.0007761832071235306
0.0008648117540550144
0.001053706860631733
0.001328265410099884
0.001540492901138163
0.001465281268384937
0.001355381989042738
0.001566969140836525
0.001157147202339626
0.001195788571864155
0.002106504189534935
0.00151769107583741
0.0003196810675512356
0.0002563883866780806
0.0005098296182241193
0.0003625548584791815
0.0002496078698240792
0.0009660740865004425
0.001638414235161749
0.001258889330940431
0.0002520301419172423
0.00045791544835143
0.0006721632020825406
0.0008312923273905568
0.001009053932128161
0.001170644907126011
0.001074463127579728
0.001231356147800716
0.0009220300473856691
0.003740778533527202
0.0009205933726401341
0.001881502002354571
0.0009385684166885922
0.0004905636613459547
0.0005552675507802166
0.0004334423851459168
0.0004709385925776316
0.0005498278316724518
0.001381393774930723
0.001809118617734001
0.00121934954544731
0.0006320694332164252
0.0008319485935329356
0.0009201878592455586
0.0009971415695321281
0.001078189121293493
0.001042805056865477
0.001093629480680589
0.0009961030642547553
0.004763302299316755
0.005124978903729429
0.0004572162906767862
0.001318641978821271
0.001162787473711874
0.0009053675500701813
0.0004219569945013937
0.0004590646286794627
0.0002146401635307145
0.000531508429973614
0.001238845383839821
0.001584896405373506
0.0008766386764712136
0.0004857791716219751
0.0005247894041525576
0.0004310121382213972
0.0006841633799119529
0.001057275957125014
0.001258651323196373
0.001332017664455561
0.0006697035284383568
0.004059172614371703
0.005078578292155902
0.0009459467516569962
0.001073933144199946
0.001165774833644154
0.0005704129971081549
0.0003091261765925649
0.0008281465611644785
0.001066764931618832
0.0007547828255998586
0.0009737035630612712
0.001283954070077333
0.0006094148758267268
0.0007902337394666229
0.0008274660629344353
0.0009114030563627343
0.000805860692086129
0.0007757631123426338
0.0009013055746860262
0.009788663845198716
0.002096234929602322
0.003752145799720508
0.005906477410604466
0.001057889260536444
0.0009652111687791286
0.001050200786463126
0.001321367521068168
0.00124134448011552
0.001208532331790695
0.001720359983296345
0.001649123917651194
0.001062023351333925
0.0009997294557228171
0.0005216733161320879
0.0006535491592402944
0.0005244210943269965
0.0005390708966469706
0.0004214067312064264
0.0002798208394205654
0.01543925827260057
0.01409454509401082
0.005814304462803568
0.004051529725533317
0.006780502353029344
0.000288479389554126
0.001795026708854241
0.000889258533400442
0.001140056027356889
0.001719047480867593
0.001299635786573329
0.001139637221478854
0.001595770322754943
0.0008901548784435738
0.0005268065082621694
7.692789560749981e-05
0.0008803618297011229
0.0009451106069289848
0.0006544850786665892
0.0001278134731693607
0.006616155569512063
0.003858555901388452
0.009344945802823371
0.008605536880663555
0.003503619966049373
0.005109126568064222
0.001405719561374747
0.002381319004060948
0.001150657636194924
0.0009897018445001939
0.001330458488530084
0.001129498878078568
0.0003181589704697071
0.001014939336940324
0.0007534576474264078
0.001302729038379637
0.0016457990977236
0.001486695633736213
0.0006720624183823139
0.0004092720778467011
0.005509088362808899
0.004316009769778557
0.001231617950888195
0.01016443033398421
0.006064198055116979
0.002599467741959575
0.001573301769930758
0.002967927183635239
0.001336371198237897
0.0009063719088677825
0.0008322325110636148
0.0007107648989717827
0.0008089105879294632
0.0004887808769491377
0.001887582972213439
0.002134786700227998
0.001995068120555444
0.001043500134093298
0.00118610165580335
0.0008292645229843061
0.007140794585771838
0.005359517695401897
0.01032745207713093
0.003751446526940786
0.00937464652020255
0.0007875896108827173
0.002822004156235496
0.001863032829615674
0.0008490174325676694
0.0007408981557995126
0.0008327193294249172
0.0007641764971886446
0.0003584761961139847
0.001952543050026167
0.002568875171337518
0.002246046850387146
0.001051297685996248
0.0009140532769821986
0.001508676460774397
0.0008133516434005209
0.003919992766328125
0.005498072651788248
0.001874024405597877
0.008383501116020424
0.004126325840939388
0.00402132615247537
0.002195098427929216
0.0008062562453339852
0.0005089538392655355
0.0006799694184049314
0.0008145983146799183
0.0004417298768699337
0.001750116732719671
0.002335817908907158
0.002463761562218745
0.001050451253072025
0.0008701016562514057
0.001581181971811599
0.00163709782289443
0.001048145574041233
0.005415308951159435
0.005572642407243921
0.002671834889228216
0.005308281420417918
0.003548727160820182
0.004055132611220784
0.004024227466156587
0.001159677939959845
0.0008955985157560214
0.0006673729473066196
0.0007608083895391922
0.001901741731411617
0.001985572919381958
0.00225755054225537
0.001165649531846226
0.0008779332586397892
0.001535675401022814
0.001608355671063203
0.0016671949719809
0.001028760550064616
0.01022418772827202
0.007428278605965429
0.009832735899796399
0.002757225325769703
0.002114421180449464
0.003398113396411319
0.004147216586660979
0.001284410504201521
0.001591311875676648
0.003093508515933222
0.003933833229864568
0.00346726699756558
0.002758646290917564
0.0007873004368897946
0.001182974899451362
0.001482828658389396
0.001651984127842396
0.001628972747563689
0.001552496329664586
0.0009949013164298405
0.006201011936211748
0.007894352443006023
0.00367580882183991
0.004801621189456433
0.001520712187887441
0.0030120460466269
0.001966996448876848
0.006435397238793631
0.004890997806848279
0.004542216245640335
0.004135692339529858
0.004011150001683988
0.00338556274178218
0.002091851100974139
0.000608514966339077
0.001375614263941036
0.001372952951832976
0.001709201124886591
0.001638014608183874
0.001127876964040082
0.001213797033017597
0.003976447654999498
0.002543035889792256
0.002694726992808314
0.003437725714706236
0.001451814921816223
0.003847506133641831
0.001187208560350653
0.002309817606426514
0.0026531351789227
0.005055263201177007
0.004039183911256577
0.003654951118203369
0.002370330548875277
0.002159192366002591
0.003334640210350921
0.003972560228744478
0.004045415183391539
0.001426615863394914
0.001729161580924942
0.001265690730152007
0.002831541460706335
0.001967639826929909
0.001091407109091812
0.002045454690260749
0.003861931366387821
0.002805603898841023
0.003057566851723583
0.001036186118275334
0.004447119962158894
0.002128948113214753
0.004375906965158079
0.005677776027037854
0.004313862167465977
0.002540462505595909
0.001347931596665041
0.0004250884346977512
0.003665861759902239
0.009739073359073262
0.002689570800320736
0.001020032934880898
0.002845787603365152
0.001788836922123649
0.001183664862361875
0.001289173661834297
0.003915913239595944
0.003518909408389614
0.004916431276798449
0.002369182017186737
0.003507197774764843
0.001419663908530669
0.009041579035370825
0.003883448319855518
0.003041777608578318
0.004160452005275457
0.002021542908132413
0.003744956777088565
0.009061584088336166
0.001376672242741592
0.01067977787308221
0.001371696755990539
0.003139037472232206
0.001232800484802287
0.001086895666394099
0.001918292783510737
0.001245469811149121
0.004516344297856269
0.003400135788193401
0.005903470100296514
0.002801303771578136
0.001932491612269307
0.006550507336746225
0.007811879797028421
0.005559454210431726
0.004921387723453534
0.001025401726144509
0.006257123706179494
0.003590475827012871
0.01625056802535552
0.01005619060965841
0.001588493283333058
0.002283870803644413
0.0006493906561394378
0.001052280133701413
0.002707620434411409
0.0004225211909918612
0.007942313449315419
0.004442203907285115
0.004604826425686688
0.008195188232343513
0.002939266351325541
0.001040095396483477
0.008601466827379226
0.009833320082743971
0.004960770593786601
0.007296527323992052
0.004023249270873199
0.009433856138183084
0.001494075339450598
0.01383233352064895
0.001669090797383547
0.002062579292460666
0.0003555742427197628
0.001249032556507551
0.003941573956401624
0.00191190232300135
0.008793342561004728
0.003990920030188091
0.007956023600807098
0.001553140641167382
0.01007725265513804
0.002432049096273433
0.004494577164250593
0.010720835359455
0.01162290493031905
0.004501881180071186
0.005190534032181954
0.004787796755922251
0.008862078613268393
0.00483256174191949
0.001688455056980141
0.001494113204186248
0.002085245941653967
0.0026493232658526
0.00361541798208687
0.003199747538930143
0.002954342346356448
0.006464899562705483
0.0008425818810510208
0.003360971869646328
0.00754258679031592
0.005540958815409888
0.002053965072138182
0.00578652841997993
0.01132070482201964
0.01020645812343592
0.005674811485751017
0.002996276020737597
0.004019228382085757
0.006052592595729624
0.002018922355432178
0.00128370271244745
0.002675999319000179
0.004263339255387753
0.003600945959099985
0.003260979506004078
0.003729336019718747
0.003334407874362067
0.0004135709258847755
0.008709315109711254
0.00677359342150628
0.007383186083913664
0.003005999874830359
0.003573937155919775
0.004949689749736716
0.01163648365720502
0.006082881142785315
0.006901821770949631
0.007335884042336332
0.003910158538901596
0.002348377387188102
0.002959029899010953
0.0008365490791195789
0.006060515510340302
0.003089057250171536
0.00285452636061737
0.003858751651319471
0.002976153412454443
0.003982312112607951
0.004243645259058823
0.007137921900961916
0.002676790777257828
0.005886581001350592
0.003687231688550538
0.003254312310005605
0.002406265119682049
0.01115842310307372
0.001132907541870747
0.005568773330897088
0.006482024389731176
0.003304254355109771
0.002674721615337522
0.002859187719608608
0.007196514107884768
0.003151332306592587
0.00255523711732384
0.003473491567505424
0.008015894223750918
0.002993954629651617
0.004454415741349686
0.007006998168331109
0.002536902498909086
0.001450064877113144
0.007245972221433552
0.001925243591772197
0.002359581602879591
0.001421180766882478
0.008403552354355644
0.00223222934649731
0.0005227706211906779
0.003704947088233258
0.003385249407823761
0.00499247674397528
0.007622880101975565
0.002614592328498604
0.002333277953532023
0.004930775761071016
0.006485016135788077
0.001562149161838235
0.005299095371090798
0.001192432604150119
0.007303270594948861
0.002507529215934447
0.008556688616272269
0.007803694879877944
0.005053909203567747
0.00253537497590053
0.002907084105230074
0.003572896684832488
0.002574179077429736
0.003885390266133279
0.003695373515898431
0.005379474718965584
0.005145054096792491
0.003150341331822257
0.004339780002031167
0.004567002966477338
0.005646718857709892
0.004299254648138703
0.003237673876840365
0.008613599675803501
0.002436207485609384
0.01150943995745472
0.005312157297284938
0.009539795022296172
0.004966356914436583
0.008806655767550131
0.003606079408541239
0.00353667804318244
0.003665555802732759
0.003747293857172871
0.003795941306636739
0.004022454557662004
0.002800892244274979
0.004040313120427524
0.003974578719742479
0.003616398769985742
0.003499019575765865
0.004926366760810252
0.007018280187406143
0.009529665277357324
0.001490645937981818
0.003956184892450704
0.00303737977741798
0.01562817903379223
0.005883146093642111
0.001157971326150765
0.01028785149898105
0.006087888908963853
0.004140059495191814
0.002606680131823052
0.003445905522897048
0.002548502439683078
0.002782569295769336
0.003456033060271777
0.003459411046349678
0.003392495184140691
0.003153436150072342
0.003958117055630531
0.007012448103891642
0.004773821884926927
0.00337657548365784
0.004862747464343429
0.01000206297033098
0.007845195734635935
0.01426394346519116
0.004722896914231667
0.006897177875596067
0.007136596777981693
0.003323862046539873
0.001942793826406363
0.003256098417095401
0.003037210463643367
0.00178227432279704
0.001136813310947217
0.001221927574072054
0.007766695148719777
0.01099587115819178
0.006299997087161734
0.007962267318375762
0.002522768633609402
0.00346247463516333
0.002975572333669386
0.003518380387254865
0.00166081495022325
0.00208062717669915
0.001026609047645071
0.01237726126857337
0.01023098290748828
0.009332044474080743
0.002591032592067805
0.003589713603074066
0.002900953493950366
0.00322939335975286
0.002895350091763367
0.001182898982339324
0.001500505615746421
0.008623016249669879
0.00962611378310365
0.003946603033824321
0.002738411537658933
0.003800953764421003
0.003057819036028102
0.003134243537386467
0.003847130148950855
0.002114030147772884
0.00171112389566764
0.0009676230752013301
0.01217078972726354
0.009290447795365604
0.002869908872895705
0.004012717784359402
0.003024261461339365
0.001820057775083208
0.00224097962760117
0.002610396869075232
0.0007232432999394585
0.001628430648388318
0.001294418498000833
0.01066676039095271
0.002950998976721682
0.004050829287590285
0.001454694397556924
0.0006822543389885349
0.001095805439406337
0.001712877057072053
0.0007035806075692329
0.0007343278683579327
0.002195388463212111
0.003974667651165118
0.003053677562555208
0.002897568911421953
0.0002174907160738394
0.0005031679854952129
0.0009033358802616607
0.001349664253535181
0.001499908473841368
0.001211480247264465
0.003717317344637538
0.004401772610142961
0.002804719176732687
0.001544321060524333
0.0005073014604425298
0.0004329418334989255
0.0007448482836448718
0.001149925750712098
0.001622554760618114
0.001779417350526066
0.002848382646749229
0.002672405005411684
0.001403257515228276
0.0007280368717620628
0.0006089893300022693
0.0004197186280164267
0.0003537084002301137
0.001034207086111023
0.001551489316029003
0.002279768574843451
0.002158705473245216
0.002186547544458035
0.0002724356359897646
0.0003916768676795843
0.0001328779323932054
0.0001537550414933755
0.0001565507559895543
0.000648151932915276
0.001526450143165747
0.002182359500912827
0.002908190925979746
0.002426347566446667
0.0005628614320785344
0.0005764332414415902
0.0004900092964673826
0.0004639517624878328
0.0003282330612675567
0.0002774519900284528
0.001125679512510243
0.002231629463476845
0.002756256220333592
0.002733592160138027
0.0005335897041362912
0.0008648847478961714
0.0005958830385693604
0.000544328902375008
0.0008393049183539499
0.0006340445200442255
0.0004534190380490523
0.001704325860825325
0.002808451081982995
0.002721827093818927
0.0007339041244929727
0.00107424136740574
0.0008483027582862418
0.001090717829107531
0.0009678921499597948
0.0006156279897218469
0.0003238197224346169
0.001212916370122544
0.002364504258498192
0.002418546350066135
0.001003650093996015
0.001310092417561422
0.001416015015677318
0.001144845886792743
0.0007474955448593987
0.0007104137176532066
0.0005259776463316609
0.0007470087705813077
0.00183082456844985
0.002286495715617936
0.001064610476873899
0.001517733759826312
0.001260563045029244
0.0006442011937043904
0.0007103454000200897
0.0008963585507151229
0.001074345576837326
0.001191738435105484
0.001730912954047095
0.002474471743852455
0.001073069003328433
0.001440997858122997
0.0007576994494264135
0.000603976111904739
0.000711761080139916
0.0009183515488116535
0.00136394156658889
0.001836863211225354
0.002241835106172386
0.002906366445488816
0.00111390275269409
0.001142927145385612
0.0005747580494465204
0.0006037823819596057
0.0007251106126646512
0.001048682827494143
0.001778988332473625
0.002157654929242263
0.002430571254797073
0.002953461804285228
0.0007111186456642319
0.0007909691303062232
0.0006254456624269648
0.0007090759781820782
0.000887519921439113
0.001543477916608896
0.002020573751658987
0.002333175864954408
0.002476542472249086
0.002785175567068199
0.0006874122756683576
0.0008503723519343772
0.0008536116178922109
0.0009454509646330736
0.001269832590428021
0.002030058277749649
0.002285561169705168
0.002496078250697408
0.003111284874520176
0.00300514197121991
0.0004864213180302847
0.0006896319675412882
0.001002879877059192
0.0009557843826620094
0.001305275026488097
0.001718428527991326
0.001726488173126205
0.001995683427104532
0.001969517273213797
0.002112471731847248
)
;

boundaryField
{
    left
    {
        type            symmetryPlane;
        value           nonuniform List<scalar> 
30
(
0.001141544809281604
0.001808981148856285
0.00179676444484375
0.00191838463861949
0.002056627552006807
0.00211950818643902
0.002219489219425891
0.002352344106277356
0.001327305410541192
0.0002094057929379844
0.0004481331398386805
3.236277951578922e-05
0.0004121994795721975
0.0007581665925616624
0.0008265490517069661
0.0008035894785513013
0.0008614449479106917
0.000530243075300136
0.0005265681983943361
0.0004550693609135029
0.02973100619023217
0.03209383534301419
0.004274354368044196
0.005696893811522706
9.047298218441942e-05
0.002840146063236468
0.002327320823134648
0.001830551235905095
0.001998916045741018
0.0008239383003432241
)
;
    }
    right
    {
        type            calculated;
        value           nonuniform List<scalar> 
30
(
0.0003500837405759304
0.0008940866202581883
0.0008987486630835966
0.000575222483048272
0.0009077282470068707
0.001245557835170372
0.0008584856571673779
0.0002470021566082478
9.846544815369491e-05
0.0001655985026676649
0.0002342105195149016
0.0003998921832959725
0.0007490749291361475
0.0007090620672540039
0.0006626511657247994
0.001035674023753082
0.001682056092293613
0.002502469342913098
0.009259869514398189
0.004218161895638103
0.01346781056592015
0.0007184999110845605
0.005843661015888658
0.003707479809432234
0.005093499690832118
0.0004854022988330168
0.0009142652199530972
0.002580054744259173
0.003280480371965097
0.003318123056113136
)
;
    }
    down
    {
        type            symmetryPlane;
        value           nonuniform List<scalar> 
30
(
0.002028639454943085
0.002290273307541067
0.0001232686384877681
0.0001732980075752036
1.3144979384445e-05
0.0004614691218374983
0.0003184607257440271
0.0001608825465070544
0.0005903334954126042
0.001496711143742511
0.002049767571312688
0.001918575442340647
0.0007613783975206676
0.0002520673023249048
0.0003022142829274421
0.0003053489810837094
0.0003587725310329732
0.000212452940569687
0.001017878917017803
0.0002975002971007757
0.0005727778796809194
0.0006409498227768966
0.0008669893618927503
0.001046743086788946
0.00110567078620962
0.001049016958329361
0.0008503086616062971
0.0008036715615368129
0.0006040347217473059
0.0001730273584588714
)
;
    }
    up
    {
        type            calculated;
        value           nonuniform List<scalar> 
30
(
0.0001718070465845534
0.0006857088552337307
0.0009761654982209611
0.0008763536356587311
0.001187085066108291
0.001467049944255717
0.001351631642509376
0.001595109531359503
0.0004468879059686581
0.001534335734091024
0.002107948683972691
0.003061383757276347
0.002456412199452192
0.002749929807841541
0.003375762345623364
0.003283817933407049
0.003087862922743996
0.002784427147218324
0.003626016088868398
0.006950176424294137
0.004456677056659017
0.003355965594702162
0.004646179882079315
0.007135509263251469
0.004423512232326171
0.01302712261574361
0.0033704543596555
0.005983772936896278
0.007067905981171731
0.0001952394357327821
)
;
    }
    hole
    {
        type            calculated;
        value           nonuniform List<scalar> 
20
(
0.013960714281913
0.01392562203074127
0.007555820789202733
0.005579968332536347
0.004275011349015182
0.001848490781311038
0.0007030554680727811
0.0007151345113226207
0.03545008647023156
0.03546535711797147
0.005432567634409396
0.006060704723319547
0.001054613316835966
0.00273638257708999
0.005358278109267503
0.009434787522351317
0.007473505478040711
0.00151777789274326
0.003189782004414905
0.01860569623442974
)
;
    }
    frontAndBack
    {
        type            empty;
    }
}


// ************************************************************************* //
