/*--------------------------------*- C++ -*----------------------------------*\
| =========                 |                                                 |
| \\      /  F ield         | foam-extend: Open Source CFD                    |
|  \\    /   O peration     | Version:     4.1                                |
|   \\  /    A nd           | Web:         http://www.foam-extend.org         |
|    \\/     M anipulation  |                                                 |
\*---------------------------------------------------------------------------*/
FoamFile
{
    version     2.0;
    format      ascii;
    class       volSymmTensorField;
    location    "1";
    object      epsilon;
}
// * * * * * * * * * * * * * * * * * * * * * * * * * * * * * * * * * * * * * //

dimensions      [0 0 0 0 0 0 0];

internalField   nonuniform List<symmTensor> 
1000
(
(3.260521471694484e-07 -3.521996936976463e-07 0.01398707275924096 1.769044914848226e-09 -0.002680191452362579 5.097613482911102e-17)
(5.092119180992314e-07 -2.734410424218135e-07 0.001610693924062771 -1.953968238146349e-07 0.005757979582780598 -1.313232631296985e-17)
(5.963598726892265e-07 -2.170391682787126e-07 -0.0008524863594712708 -2.862176343532015e-07 -0.004955702863698799 -3.788524138626671e-17)
(6.475515154700945e-07 -1.772545718757184e-07 0.0005092983368641419 -3.440466608180445e-07 -0.001941448279858007 5.321027999350729e-18)
(6.724613850322822e-07 -1.469814459761677e-07 -0.0001464950784334776 -3.722821017403725e-07 0.001797492582784159 -1.082165660375235e-17)
(6.830171121652811e-07 -1.242482751290969e-07 0.001624907643783495 -3.866199030815661e-07 0.002243492390452844 2.667631193423961e-18)
(6.848371248152266e-07 -1.06185580123788e-07 0.003177741170650574 -3.908590653360234e-07 0.0009759640796406337 -1.019834701000413e-17)
(6.809478935293934e-07 -9.214961029105937e-08 0.00277598819044229 -3.894852364665792e-07 0.0008612883287254409 -2.508748330030986e-18)
(6.751711148583033e-07 -8.030717630327229e-08 0.002660518410358863 -3.848977997567875e-07 0.0001784899225573565 1.444456290184821e-17)
(6.650378654941947e-07 -7.015858653785662e-08 0.003350576503080457 -3.782481415052859e-07 -0.001939026532272374 1.649657573546111e-18)
(4.465619709350548e-07 -4.232438667005116e-07 -0.009894952068034988 -2.529891905149737e-08 0.006928301612285331 3.595939386314288e-17)
(5.951165514750538e-07 -2.911208994740015e-07 0.0006984636961004089 -2.057538188005504e-07 -0.005229026428730021 -2.528673565833462e-17)
(6.606576608782181e-07 -2.05606038046002e-07 0.00258231116567854 -2.859349040433886e-07 -0.004360866165389237 5.425343427729581e-18)
(6.963501086185554e-07 -1.491854100087933e-07 0.005288501750813125 -3.384955219151555e-07 -0.00169188747880194 2.970334497135366e-17)
(7.105187065668124e-07 -1.097788047015751e-07 0.004041837345741232 -3.634585065726501e-07 -0.00322382979058482 3.50716306933734e-17)
(7.131831120971193e-07 -8.250281825920866e-08 0.002922257310034346 -3.764979025290671e-07 -0.005894152819455017 3.110706341630175e-17)
(7.090781162288409e-07 -6.254737234216278e-08 0.004183851014428355 -3.800876513173489e-07 -0.005023700668056794 2.784914286639235e-17)
(7.009105174122781e-07 -4.847187058917327e-08 0.006232695330935705 -3.7911746931676e-07 -0.00254874835440414 -2.181727370837204e-17)
(6.906859867025533e-07 -3.741671931264519e-08 0.005474016839580698 -3.739918395152554e-07 -0.001958326000723919 2.721286601621292e-17)
(6.789086766641033e-07 -2.953023329843178e-08 0.005070126867451679 -3.694753109582614e-07 -0.001657594030343364 6.136585157560141e-18)
(5.866195503417874e-07 -4.750275489481169e-07 -0.008030270583072098 -7.542748329643957e-08 -0.0002400933644285051 -1.591998387833196e-17)
(6.852721358378089e-07 -2.989380031621356e-07 -0.007405976946544947 -2.231890236184063e-07 -0.006771614514407304 3.463158720994895e-17)
(7.208541335892694e-07 -1.89815740822768e-07 -0.004235673880495628 -2.839479920943838e-07 -0.005105889094126653 1.066443920875462e-18)
(7.363187322337218e-07 -1.201198063180578e-07 0.0006208001987073275 -3.261053217376567e-07 -0.003503489374800003 2.241486091542202e-17)
(7.371523610167102e-07 -7.367255323710095e-08 0.002383730404108223 -3.448812109727016e-07 -0.002579923550201633 9.21188709943985e-18)
(7.305749569720803e-07 -4.311338293283374e-08 0.001876509619243515 -3.550022606298484e-07 -0.001295144019506674 8.182879740143966e-18)
(7.200027116232236e-07 -2.205179938433069e-08 0.0005319655365714775 -3.571200164883454e-07 0.0005901371090135479 6.331547096049884e-18)
(7.072029689246325e-07 -8.197615349377756e-09 0.001859567922536394 -3.560753668567417e-07 0.001611145222459216 -5.123100593681777e-18)
(6.93340614690548e-07 1.812206329887671e-09 -0.001304163531987724 -3.509090146935231e-07 0.003887603462034491 2.485549552386819e-18)
(6.789781111215324e-07 9.094895808559314e-09 -0.006035364873002372 -3.476345712066452e-07 0.002967672499707376 9.594270223295384e-19)
(7.392150842607584e-07 -5.014033288713724e-07 0.00241590275624822 -1.437988897390179e-07 -0.005575943959536895 7.268929473748821e-17)
(7.763576928503039e-07 -2.951948291847595e-07 -0.004779000756482539 -2.461839957735666e-07 -0.006599719168690301 -2.386289235232264e-17)
(7.757347292463493e-07 -1.704093065467115e-07 -0.009766470371787388 -2.806302099783196e-07 -0.002149391344711216 -1.537394561034684e-17)
(7.675601854638087e-07 -9.218100565027102e-08 -0.01092696209709187 -3.083652121562767e-07 0.002655184528606935 -1.234907977209463e-17)
(7.532667149132261e-07 -4.153010395083131e-08 -0.01032268374148472 -3.187499128315834e-07 0.004971595092079463 4.280147151333977e-17)
(7.366818722988057e-07 -9.262612645853137e-09 -0.009532270386645397 -3.247874479182302e-07 0.00594504716693793 1.947929495696147e-17)
(7.194020119495339e-07 1.202391302968848e-08 -0.009196754477775407 -3.249613187170374e-07 0.005543762940737738 3.67322202260052e-17)
(7.02197364718859e-07 2.537600186418293e-08 -0.005329792421358382 -3.236553935772947e-07 0.01046809940909074 -2.345568768761021e-17)
(6.851208915432091e-07 3.420103809873252e-08 -0.0001967346932801452 -3.188215859201767e-07 0.015769015553049 6.96239292966787e-17)
(6.689973790290289e-07 4.065982156743156e-08 -0.001313088711741809 -3.166675863199667e-07 0.007755098696406278 -8.465968986795012e-18)
(8.956817443190019e-07 -4.981777267424497e-07 0.003229114097669568 -2.237920923845731e-07 -0.001838653088066336 1.985981559149317e-17)
(8.645860105256139e-07 -2.788924332315387e-07 -0.003132853473227712 -2.725923974619864e-07 0.002963703268939015 1.350870084231573e-17)
(8.242719747813567e-07 -1.481216962342665e-07 -0.006432220807233705 -2.76332150291455e-07 0.007612203786727477 -5.985392561773069e-17)
(7.907017883167476e-07 -6.710453513203978e-08 -0.008502258057872407 -2.8703555291058e-07 0.007908767319908883 6.692691427255458e-18)
(7.604883635386306e-07 -1.563692931501164e-08 -0.00953693829331932 -2.876117445317114e-07 0.006526491480401426 -4.596121835045263e-18)
(7.336827852921767e-07 1.643903962306416e-08 -0.01017908366620848 -2.887987397479664e-07 0.006182792647048167 3.785339329867597e-17)
(7.098631856919113e-07 3.692111919172988e-08 -0.009113647748630603 -2.867551134510803e-07 0.005281562965545343 2.034768861448011e-17)
(6.885478559346958e-07 4.933199307691031e-08 -0.008464256798830512 -2.850826979908971e-07 0.004267947822775681 -1.606418141191978e-17)
(6.689092950705219e-07 5.683731467955988e-08 -0.00393010805289148 -2.809231802046226e-07 0.0005256928269245051 1.354810773520541e-17)
(6.513869057819123e-07 6.240666639790247e-08 0.00060492106311737 -2.7984333989631e-07 -0.001495748952844289 2.838886973147264e-18)
(1.046408515680217e-06 -4.635661500040491e-07 0.00254471921500278 -3.076720134225987e-07 0.002272611323594694 -4.799809748734184e-17)
(9.46007690950941e-07 -2.498603443776319e-07 -0.0002886249407937366 -2.999857290122784e-07 0.004391643180737041 4.150841815656493e-18)
(8.656933989508689e-07 -1.236318785039357e-07 -0.0003587446682546649 -2.715899955293548e-07 0.001967021288360682 1.067653520067481e-18)
(8.068713552529099e-07 -4.603655889738057e-08 -0.0008558144063151587 -2.643552730360949e-07 0.001876057969093819 6.415715306757194e-18)
(7.610437831264128e-07 2.622345616550587e-09 5.695724935667794e-05 -2.546699905961613e-07 0.002544438161382309 8.394398335545007e-18)
(7.244316348068445e-07 3.249426460136889e-08 0.0003641748046353235 -2.507383560844523e-07 0.001594814469262662 1.883377909440957e-18)
(6.945253212953242e-07 5.11067206192835e-08 0.0001136631468960715 -2.4640713858792e-07 -0.0007068649444387873 3.550708507801945e-18)
(6.695422530029127e-07 6.210216008842323e-08 0.0002340688824889478 -2.442999183988844e-07 -0.001316739939049865 -6.149233983145803e-18)
(6.478505430822277e-07 6.819920685779637e-08 0.0002392998953670151 -2.409770605091736e-07 -0.001503191354799339 -3.798796515717951e-18)
(6.292797474353843e-07 7.280678029058381e-08 0.000114497240731181 -2.408408538477486e-07 -0.0004439458628213862 1.769643707032132e-18)
(1.181609715958441e-06 -3.984310554678096e-07 0.000123012594162437 -3.87302903702887e-07 0.002679236794885492 6.470215681434871e-18)
(1.016724421424359e-06 -2.088382980172756e-07 0.001389957122439502 -3.257992277708509e-07 0.003444141695286999 -2.328475066308416e-17)
(8.993922753257791e-07 -9.756206987962764e-08 0.0001211882969015682 -2.669316752858097e-07 0.003946128125873836 9.1983860074485e-18)
(8.174125012188832e-07 -2.951524866313366e-08 -0.001125793191797865 -2.426210557186501e-07 0.003607879012312984 -9.522657952825071e-19)
(7.574077303457424e-07 1.277867008752019e-08 -0.001000927363190644 -2.232118447082014e-07 0.0005191353683334779 4.181457025744466e-18)
(7.120256013967598e-07 3.847463260366956e-08 0.0004650942038378919 -2.144054782022151e-07 -0.0006136737280510041 1.706252876279632e-18)
(6.768116719045525e-07 5.419786894016694e-08 0.0004608658549470691 -2.079343745505354e-07 -0.0007677466745881405 2.646222750357358e-18)
(6.487094600346636e-07 6.332209392514164e-08 0.000333634724783765 -2.053844281156859e-07 -0.0008173087993391833 -5.64186122489836e-19)
(6.254621648646863e-07 6.799858173376298e-08 0.0001199146412104204 -2.029469318240093e-07 -0.001036138085877615 3.414444937811739e-18)
(6.060852385775612e-07 7.162680857892007e-08 0.0002070395321631405 -2.035804258811914e-07 -0.0006373443847797931 3.010327964228142e-18)
(1.292190286789519e-06 -3.06245714812543e-07 -0.0001715731480100846 -4.54963628355156e-07 0.002311973533826539 -1.87095864196452e-17)
(1.073251029554437e-06 -1.5740824115588e-07 0.0006160527972168246 -3.476369061914558e-07 0.004306045862590827 -1.99967863415629e-17)
(9.250021101615487e-07 -7.041020206472312e-08 -0.0001331687977888192 -2.629056413169335e-07 0.004374850827851614 3.242921276238584e-17)
(8.237974251302876e-07 -1.738782141323386e-08 -0.0005958687940847608 -2.240628429818441e-07 0.002005049013866128 1.168593828184423e-17)
(7.521001652072941e-07 1.537306012382528e-08 -0.0001317823111879006 -1.964009602595778e-07 -0.0004534064860696784 3.595352611302894e-18)
(6.995597239188257e-07 3.514063516845427e-08 0.0001809471364262462 -1.834419729914738e-07 -0.0005675614587873393 3.502187794127365e-18)
(6.600881366496448e-07 4.708255465357393e-08 0.0002163073698123892 -1.751681795836796e-07 -0.0007016598933474728 -3.22556605058666e-18)
(6.2952890679245e-07 5.392994341755415e-08 0.0003436500645212711 -1.722192862937208e-07 -0.0009674217743017169 1.53085352065621e-18)
(6.051698476182438e-07 5.721880362138253e-08 0.0004465010242636575 -1.705863113446918e-07 -0.001301018549059393 1.550025743392196e-18)
(5.852054119890988e-07 5.984273586006078e-08 0.0005470411892698986 -1.717963127021535e-07 0.0005203822827346869 -9.089761677355082e-19)
(1.370498085478508e-06 -1.928743611066588e-07 0.03090417194755577 -5.040952109067506e-07 -9.123573454991043e-05 9.061498836285239e-17)
(1.112644088250326e-06 -9.796964987708841e-08 9.38462626299354e-05 -3.634651211861717e-07 0.004183336632116496 -5.633771021131254e-18)
(9.421785898804077e-07 -4.259696124356526e-08 0.002433406876615796 -2.599614183261083e-07 0.004509783196277609 -1.026777021007589e-17)
(8.27211507008611e-07 -8.905847421064698e-09 0.0002996743114496433 -2.105559739614017e-07 0.002225872409269543 5.408961164439543e-19)
(7.471796822747866e-07 1.183799729306077e-08 -0.001252956206345058 -1.769048651237442e-07 -0.001098978401882279 4.414876992037703e-18)
(6.895723164322423e-07 2.430452971202751e-08 -0.0003444705256289381 -1.609261652425789e-07 -0.0009358321560638496 -2.31248271802849e-19)
(6.471245857530706e-07 3.177603266064507e-08 0.0004206218873076697 -1.513519989373655e-07 -0.001022137211913796 2.08124228890065e-18)
(6.14868199046461e-07 3.602978730890661e-08 0.0006253466928020614 -1.481047341100563e-07 -0.001319834697082838 8.631381903146507e-18)
(5.898018791527213e-07 3.798426471743774e-08 0.0008096798176484169 -1.470838263514726e-07 -0.00117680445269756 -9.232406940225727e-18)
(5.694549801823669e-07 3.957921115133506e-08 0.001057431961435302 -1.486839136896038e-07 0.0005934659329853769 -5.198207475313318e-18)
(1.410944654662211e-06 -6.591267679788152e-08 0.03174928553349772 -5.297434561528763e-07 0.02574780662127243 1.697791322696936e-16)
(1.132779309580668e-06 -3.333158762023226e-08 0.0008510709425439398 -3.714415211609344e-07 0.02779407670088012 1.620099789068494e-16)
(9.506660581343453e-07 -1.430933685359484e-08 0.001867598148232077 -2.578933497805155e-07 0.003701699412778597 -5.02660909565284e-17)
(8.28489985528892e-07 -2.733555159037636e-09 0.0008278638365755227 -2.028299261618842e-07 0.004933654733186973 -5.251568772863721e-20)
(7.440969947858004e-07 4.386600349642131e-09 -0.0009635546367455502 -1.659655746623236e-07 -7.835040186585976e-05 9.77218396730569e-18)
(6.838496955969597e-07 8.660988089142952e-09 -0.0004232534287262363 -1.483689646812079e-07 -0.002459638601166087 1.311524336655246e-17)
(6.398630341424749e-07 1.121473440662537e-08 0.0002582978316107492 -1.381027283864442e-07 -0.002015518912850766 1.371864342872373e-17)
(6.0673869061991e-07 1.266550846674374e-08 0.0003951733492246633 -1.34702084736899e-07 -0.001585303824020315 8.651234189379973e-18)
(5.813305568681837e-07 1.331945455955824e-08 0.0004500115701314858 -1.340195685106912e-07 -0.001731112033877445 -3.009112402515777e-17)
(5.608106962188515e-07 1.385946986488929e-08 0.0007779135198685355 -1.358477852595157e-07 -0.0007135514036820644 1.710096038687452e-18)
(1.913688517258581e-07 1.731184810867725e-08 -0.001756853264932199 -5.1657874841278e-07 -0.004777402367367348 -1.245591294314479e-17)
(1.279779595228388e-07 -7.739984613012663e-09 -0.001983434851084738 -3.41600211723805e-07 -0.00161112823318232 0)
(9.772653281450068e-08 -2.050917279157768e-08 0.0001067536327053932 -2.380647083929329e-07 -0.0006775417936495052 -4.046522168150853e-18)
(1.033377693014517e-07 -2.73356871679921e-08 0.0001500804091571172 -1.786984967190014e-07 -0.0002725294234536554 1.313389088270393e-18)
(1.180209751854509e-07 -3.051945352980288e-08 -1.138312695996996e-05 -1.44464120200061e-07 -5.205812065631545e-05 -2.450857675782156e-19)
(1.410392180523565e-07 -3.163815465275397e-08 -0.0003996439603625384 -1.252851489506705e-07 0.0001201945936239802 -3.351920905749811e-19)
(1.650793909208129e-07 -3.155510592246006e-08 -0.0002757950426364385 -1.151374890933069e-07 0.000247737396594684 7.133670480101753e-19)
(1.900345039132663e-07 -3.083060536125871e-08 0.0001393282894761761 -1.102969750852749e-07 9.734552491209785e-05 -5.662885433975281e-19)
(2.133878524378658e-07 -2.959896620697309e-08 0.0005112437774652884 -1.087635608294227e-07 6.351484883430634e-05 1.034071113473175e-18)
(2.357084351559697e-07 -2.87016086209619e-08 0.00129618986067269 -1.083224227670364e-07 6.455342550687716e-05 2.963068590516549e-18)
(1.811914107356419e-07 4.814320387769295e-08 0.000866511498117792 -4.912180835816946e-07 -0.005182801082023226 -5.057359350344284e-19)
(1.330889459133775e-07 -2.42858476350051e-08 0.001306317938196479 -3.342244921767173e-07 -0.001851245333410149 3.600626319076597e-18)
(1.110480965219281e-07 -6.100129156194594e-08 0.0008035083490387858 -2.40471625774506e-07 0.001930314371361596 -1.82273298655547e-18)
(1.207887998427811e-07 -8.049908376296905e-08 0.0002088426021582377 -1.86838970249608e-07 0.003279945906138016 8.761117104916992e-18)
(1.374185120400219e-07 -8.951225575719445e-08 0.0001400938661915179 -1.55736196352169e-07 0.00193277612219917 -9.703339407726679e-19)
(1.610065278072954e-07 -9.257882870249688e-08 -5.422573445887973e-05 -1.381930141347017e-07 0.0004217501027670192 -1.149114004668066e-18)
(1.848533895561912e-07 -9.220508431874869e-08 -0.0003768856762268284 -1.287387147710937e-07 0.0006014509976308908 -2.535896307894543e-18)
(2.092252523736375e-07 -8.998783962691147e-08 -0.0001781298075998038 -1.240675080884724e-07 0.0003647648314081423 -8.511426258563316e-21)
(2.31579155497568e-07 -8.633775804291392e-08 0.0003857587968705148 -1.222539174228163e-07 0.0002453948531451878 4.670440464226454e-19)
(2.532018401476253e-07 -8.365507357329203e-08 0.001305926021715928 -1.215387156643933e-07 0.0002201114378553614 -1.091510226160345e-19)
(1.619579870143631e-07 6.874046804360618e-08 0.0006100330002501793 -4.424239115825497e-07 -0.0008098710279448502 -9.311463048824984e-20)
(1.425920581551673e-07 -4.306898006993293e-08 0.002594144257956342 -3.199157624585674e-07 0.006265515422627083 0)
(1.354600762850732e-07 -9.941721645411612e-08 0.003100726132117008 -2.446045252373222e-07 0.01053345924685416 -5.044635838448143e-17)
(1.527615320518252e-07 -1.291043847189176e-07 -0.001257398066077862 -2.018018595938011e-07 0.008598728359947943 2.731206172772299e-17)
(1.728814394710272e-07 -1.42619905760649e-07 -0.004534101470575483 -1.765872493300223e-07 0.007048063638358912 -4.486401287092947e-18)
(1.974647153814269e-07 -1.469708597662983e-07 -0.003317866508701601 -1.621332087748929e-07 0.006539258533025628 4.681405894550588e-18)
(2.209066783936699e-07 -1.460572613217118e-07 -0.001741890227349461 -1.539935954304902e-07 0.006314503273116489 1.023031098649965e-17)
(2.44169701325426e-07 -1.423001028384626e-07 -0.0006921259563465931 -1.496534250060318e-07 0.001281620094699418 -4.816486620278081e-18)
(2.646465003777038e-07 -1.364192799350753e-07 -2.43409605876216e-05 -1.473319252057915e-07 0.0006461053496694989 2.638037116123546e-19)
(2.849974866737976e-07 -1.32013541578116e-07 0.0008638856852208492 -1.461366797714527e-07 0.0002999766317206722 -1.26829020378844e-18)
(1.383042037122182e-07 7.390243686902064e-08 0.005258268337637598 -3.752327965624246e-07 0.003945215221730329 1.448717919853503e-17)
(1.579974539440185e-07 -6.486761381970649e-08 0.008615994444881517 -3.002300589887812e-07 0.01192395335012079 -4.295140265529952e-18)
(1.710026772464093e-07 -1.342015423039192e-07 0.004094198539542585 -2.502396629733973e-07 0.006211099518066573 -4.249483937455812e-18)
(1.984114881964286e-07 -1.703443605043559e-07 -0.0005200243127444929 -2.223403885161316e-07 0.003144328530554711 3.92402686155286e-19)
(2.231052502285571e-07 -1.863550488047191e-07 -0.0008889750499293366 -2.052163900629599e-07 0.00369568546173297 3.543957921119157e-18)
(2.488673062678521e-07 -1.910059118999031e-07 -0.001257008581905546 -1.950158178682789e-07 0.004254203524151286 2.016540217237986e-17)
(2.716124637373745e-07 -1.891906013227709e-07 -0.00745156517900878 -1.88698356368993e-07 0.001960189884876784 3.797737319069236e-17)
(2.932114148794822e-07 -1.838403325216769e-07 -0.008464397649967573 -1.84812382699875e-07 0.001594618773864112 9.553101029030319e-18)
(3.110397519298369e-07 -1.760308477105808e-07 -0.002381046394432622 -1.818298790033964e-07 0.003347738843733186 -3.073937435142441e-18)
(3.295180819712175e-07 -1.700177341521781e-07 -0.0004818925097577225 -1.799523413012079e-07 0.001722714180156756 -3.763443349689344e-18)
(1.157483195617255e-07 5.986065932940054e-08 0.004746050799691119 -2.963806181565996e-07 0.006697038626640405 -9.920588225170205e-18)
(1.80361151281616e-07 -9.02756666636323e-08 0.006563429444158829 -2.772153033305051e-07 0.002644337266812957 -1.452772707486785e-17)
(2.163848951469023e-07 -1.642367847664154e-07 0.002087118729378203 -2.569544058666566e-07 -0.004497483250063068 -1.172754383110548e-17)
(2.551308955340562e-07 -2.021277131254681e-07 0.001586134622730091 -2.465957600029237e-07 -0.004090944663813536 4.836356979418991e-18)
(2.847891465046634e-07 -2.181186664816505e-07 0.00085612014718983 -2.389817635300829e-07 -0.004790336686751824 2.736621991689751e-18)
(3.115869570359857e-07 -2.218471395024427e-07 0.000822528567008923 -2.337913804657232e-07 -0.005039038896880238 -9.068115622080892e-18)
(3.33252552983854e-07 -2.186880912624661e-07 0.001290210325725754 -2.296331766861429e-07 -0.004575539326215733 9.263879816000671e-18)
(3.526351894548597e-07 -2.11705047304949e-07 -0.0001336292187765734 -2.262754090898728e-07 0.001289364032249947 1.62697865014165e-18)
(3.672201506468482e-07 -2.023439979382162e-07 -0.002937123142882449 -2.225658426778656e-07 0.00172853977357384 3.3477867069686e-18)
(3.832416888981649e-07 -1.949037050720938e-07 -0.00519577485930307 -2.198349653174521e-07 0.001425092242850674 9.746676997989703e-18)
(1.006406887465602e-07 2.510012105101187e-08 -0.001197104889361674 -2.13651787024682e-07 0.008445352409256607 2.13899331872871e-17)
(2.108410286005819e-07 -1.192515444169525e-07 0.004994742910880193 -2.531555046667217e-07 -0.004256653284996983 7.186549936853703e-17)
(2.699755445375236e-07 -1.886549732670009e-07 0.002679905019072865 -2.640441424717322e-07 -0.004786657315049426 -4.421680290476365e-17)
(3.197439894453532e-07 -2.231308295568751e-07 0.001668091208720822 -2.72152141019174e-07 -0.004853189850854004 1.191884962752805e-18)
(3.539461619508729e-07 -2.363525486346341e-07 0.0009248710478369895 -2.745348214773677e-07 -0.005830315482905659 3.668328616532499e-17)
(3.812569847245106e-07 -2.378396127498097e-07 0.001329649086615438 -2.746331300971014e-07 -0.005484911777603548 1.518867941294193e-17)
(4.013572118174442e-07 -2.328639507725538e-07 0.002242985004836649 -2.727874930337697e-07 -0.002975497944100196 2.175545022638989e-17)
(4.179826192323519e-07 -2.24237266468708e-07 0.002825274754633305 -2.699845886047083e-07 -0.0007260727901556511 -1.764035199131444e-18)
(4.289322864794453e-07 -2.13718837599401e-07 0.002112971864686007 -2.65611078480666e-07 -0.0001044730636863062 -6.589669280149405e-18)
(4.4196111862008e-07 -2.050877039543791e-07 0.0003869289546175804 -2.61919229367346e-07 0.001729591992385778 8.413641386406319e-18)
(9.945185325824643e-08 -2.947893668252922e-08 -0.007637146267710644 -1.352555113375218e-07 0.003141066510923529 5.693221559485446e-17)
(2.505447483632578e-07 -1.511253030628633e-07 -0.002197978272894901 -2.305528831698409e-07 -0.006921747383841879 3.318399326002841e-17)
(3.299984804596942e-07 -2.069167865158968e-07 0.00165812651526427 -2.709100110557998e-07 -0.002449850019285403 1.538388051066573e-17)
(3.88878890427165e-07 -2.329023131741406e-07 0.0007834689177500914 -2.966162162054131e-07 -0.003679392927372023 2.096417871806308e-17)
(4.263688287156884e-07 -2.406733707530182e-07 0.0008252741550611435 -3.084884571137931e-07 -0.006008956152194505 -1.277324192430371e-17)
(4.532898343373173e-07 -2.386691160468134e-07 0.002760105955637538 -3.136471766146904e-07 -0.003473608474365348 -8.947313468074723e-18)
(4.712401591863768e-07 -2.314508136515534e-07 0.005918349363695504 -3.14034086748886e-07 -0.00252812110300185 -1.825978065027328e-17)
(4.84605690031673e-07 -2.212380494268086e-07 0.00427825373063026 -3.117892638675133e-07 -0.0004484235629739959 1.739404415365968e-17)
(4.917468029181509e-07 -2.099625147898195e-07 0.003243714590797433 -3.068841166642115e-07 -0.001004685874331704 1.472238893019346e-17)
(5.013268598040528e-07 -2.0039627787801e-07 0.001405970574243525 -3.022622134520807e-07 9.607451330521084e-05 -3.687453376257045e-18)
(1.179711669552009e-07 -1.006015913208226e-07 -0.005192635268822797 -6.892507142861327e-08 -0.005050472852825678 3.776542610528611e-17)
(3.002438689866768e-07 -1.845650458453184e-07 -0.006862731609516382 -2.117465780930904e-07 -0.0001132332351513861 4.505082669129905e-17)
(3.945047182884301e-07 -2.187586868003187e-07 0.007498335428593784 -2.769447185245286e-07 -0.008473629786804502 9.504099291384006e-17)
(4.59071816615596e-07 -2.317968857781867e-07 -0.001729462683595713 -3.176615580748337e-07 -0.004637634609120092 -1.272350155172728e-17)
(4.977802042206943e-07 -2.317862267944117e-07 -0.002643535969967191 -3.375705956984784e-07 -0.002038218940150093 -2.487822156532052e-17)
(5.230228168692012e-07 -2.252364886333497e-07 -0.001893337544584087 -3.470512121413007e-07 0.0002429561318645214 2.382052599119627e-18)
(5.381217428827414e-07 -2.154437769711478e-07 0.001965677009358015 -3.494139504290775e-07 0.001461753464942235 -1.558577447843546e-17)
(5.47732511842241e-07 -2.037758630258395e-07 0.005192380729258986 -3.47639830457726e-07 0.001630414186725525 -3.76311902214181e-17)
(5.511295338344931e-07 -1.920956380141866e-07 0.005009859359897739 -3.4258897874895e-07 -8.712229542820969e-07 2.86502847049279e-17)
(5.568337989755339e-07 -1.818288209634608e-07 0.003907669887507292 -3.370677084320391e-07 0.001589373370492569 2.334989802807917e-17)
(1.606477565578381e-07 -1.828947749361097e-07 0.0009722819882525406 -2.121837942939173e-08 -0.002751117462109075 4.508273538450235e-18)
(3.602879539322291e-07 -2.176746805304957e-07 -0.005846205964184821 -1.98767946695654e-07 -0.01580711971763521 -6.622329530000481e-17)
(4.616457659948162e-07 -2.241958203877002e-07 -0.0005784040996637142 -2.817006060270638e-07 -0.009991139286491136 -3.268311031804594e-17)
(5.272944939506828e-07 -2.209450243961213e-07 0.01137479644232347 -3.333991161033157e-07 0.001346936386487297 -1.333322527612051e-17)
(5.64560506624709e-07 -2.114528154957441e-07 0.005156969530602422 -3.590644014056643e-07 -0.002076194441877899 8.159382658897998e-18)
(5.866134217571055e-07 -1.996960291720465e-07 0.004020415843137544 -3.717319126837986e-07 -0.002558409798121674 9.066514297353077e-18)
(5.981199183189776e-07 -1.871851856427123e-07 0.00206776839366488 -3.755086386495774e-07 -0.0016264054259403 8.119225628958187e-18)
(6.035803536803761e-07 -1.744419546173072e-07 0.002751210707153483 -3.742211309354423e-07 -0.004307421296508259 1.623238364082358e-18)
(6.034835115686522e-07 -1.627143383122264e-07 0.004611589984759949 -3.691698841207725e-07 -0.001701326854394574 -1.366058156780332e-17)
(6.050760300418029e-07 -1.521072582402854e-07 -0.005244618887630094 -3.635952170624092e-07 -0.005495379657090795 -5.310109694985006e-17)
(2.29951916637526e-07 -2.694019300617417e-07 0.001894514210621524 3.157960089943776e-09 -0.02019142284134364 -1.578830182795855e-16)
(4.302857683771487e-07 -2.481554105139638e-07 -0.00533264124527143 -1.930598446718713e-07 -0.01115889371132924 -2.216094136370229e-18)
(5.294589297931096e-07 -2.235003828739298e-07 -0.002539849804951973 -2.84829666433422e-07 0.006746807035036165 3.811356642016327e-17)
(5.906998850083305e-07 -2.020890650339799e-07 -8.876678385305028e-05 -3.423934382326868e-07 -0.00346333768393429 -2.308268747803043e-17)
(6.233198982464453e-07 -1.822349583739415e-07 0.0006634912706807472 -3.709159198933162e-07 -0.004664834525228066 -2.098670837130471e-17)
(6.403444244245253e-07 -1.649622054322967e-07 0.002577581157486711 -3.851811454853515e-07 -0.002106050961768719 5.147628222473482e-19)
(6.472123984012517e-07 -1.497715479122143e-07 0.002250767465109382 -3.896316924116039e-07 -0.001218987487635235 -6.856712749554766e-18)
(6.478853696577073e-07 -1.362312734645379e-07 0.002442348359309093 -3.88275699543932e-07 0.0005461287533318733 1.151382496361819e-17)
(6.445323306110986e-07 -1.250565415457194e-07 0.00390415921038115 -3.839603633746314e-07 0.003356859058353076 1.720796257982039e-17)
(6.406428758743003e-07 -1.144811735369238e-07 0.001245768508164806 -3.767848484095436e-07 0.0005126924996747958 -5.742165382279098e-18)
(2.565146400639484e-07 -2.651668380292771e-08 0.00177515077861843 -1.106419123560859e-07 0.0001243903052046098 -2.947787617661849e-20)
(2.748305078518869e-07 -2.371354075721661e-08 0.00166153506025502 -1.113307140833962e-07 0.0001469454545004559 -3.47546468295253e-18)
(2.915016995243331e-07 -2.148101202554876e-08 0.0006593730011828558 -1.124709052493322e-07 0.0001785394119854968 -2.093796053872413e-18)
(3.0672971101153e-07 -1.942305381018857e-08 -0.0002182965791206423 -1.13277953208876e-07 0.0001429392117257935 -9.538615638960633e-19)
(3.203367890381984e-07 -1.758979447619152e-08 -0.0002617251496639664 -1.136023351445813e-07 0.0001435078534610999 -4.176655822338772e-19)
(3.325783209625652e-07 -1.596618786872655e-08 -0.0002644398730509131 -1.134001854414799e-07 0.0001653130547290546 1.001816772568901e-18)
(3.434490105899888e-07 -1.450606211181465e-08 -0.0003107060352627119 -1.125106527724647e-07 4.740346386238088e-06 9.941024355826748e-19)
(3.530610436776375e-07 -1.320141475252146e-08 0.0001839894841147797 -1.109047696894704e-07 0.000219376969909543 -2.238791564727707e-19)
(3.614574023222662e-07 -1.201722813591243e-08 0.0008815089657728856 -1.084830998669333e-07 0.0003401654563341996 2.927081081661001e-18)
(3.686881743209257e-07 -1.093731588034607e-08 0.000257642694744607 -1.051897560425934e-07 0.0004301453237368665 5.737054034063949e-18)
(3.747696881613416e-07 -9.936307199651336e-09 -0.0004960401312053695 -1.009353287642641e-07 0.0005732226022452053 2.659080716223835e-17)
(3.797210861273207e-07 -8.994771226325826e-09 -0.0005550787721328872 -9.563230320436849e-08 0.0006011109929692565 -2.27342373143109e-18)
(3.834910439508082e-07 -8.091166035469062e-09 -0.0007508347702098972 -8.916676577312465e-08 0.0006572745438940329 -2.668856862268043e-17)
(3.86100927783657e-07 -7.203753873710499e-09 -0.0009065060699893635 -8.140879829959762e-08 0.0006976551031791919 2.203994518313383e-17)
(3.873489325560485e-07 -6.311412221930072e-09 -0.0009575389571898908 -7.219362625546499e-08 0.0007281951360759967 4.618912246462824e-18)
(3.873821029874891e-07 -5.386995203804105e-09 -0.0009084753023345352 -6.133182666176523e-08 0.0007585640537644304 -8.650767711468345e-18)