/*--------------------------------*- C++ -*----------------------------------*\
| =========                 |                                                 |
| \\      /  F ield         | foam-extend: Open Source CFD                    |
|  \\    /   O peration     | Version:     4.1                                |
|   \\  /    A nd           | Web:         http://www.foam-extend.org         |
|    \\/     M anipulation  |                                                 |
\*---------------------------------------------------------------------------*/
FoamFile
{
    version     2.0;
    format      ascii;
    class       pointVectorField;
    location    "1";
    object      pointD;
}
// * * * * * * * * * * * * * * * * * * * * * * * * * * * * * * * * * * * * * //

dimensions      [0 1 0 0 0 0 0];

internalField   nonuniform List<vector> 
2142
(
(5.813764370570148e-07 -2.414479657312349e-07 -0.0009416032176985222)
(5.418647415712515e-07 -2.141057821932355e-07 -0.0011775178586328)
(5.176604766660452e-07 -1.986735864520021e-07 -0.001468799122922842)
(5.027072225772691e-07 -1.895554759404714e-07 -0.001561812089281662)
(4.945317301995209e-07 -1.850864778554614e-07 -0.001738732506929945)
(4.911496745667513e-07 -1.836203293139625e-07 -0.00179424083105108)
(4.913021021667568e-07 -1.842834669468242e-07 -0.001625745260361023)
(4.940931775741444e-07 -1.864056717369818e-07 -0.001438483194591011)
(4.988805960847022e-07 -1.895525813836817e-07 -0.001202615128686284)
(5.052035781416625e-07 -1.93423075980362e-07 -0.0008470531825962498)
(5.129144197690172e-07 -1.979554646059769e-07 -0.0007412039610631565)
(5.334552082665784e-07 -2.600530537977824e-07 -0.00193761370650879)
(4.905768936115447e-07 -2.384028573660943e-07 -0.001540902246091425)
(4.642713577230071e-07 -2.265889533192066e-07 -0.001486028507117036)
(4.479414687101944e-07 -2.198200892888673e-07 -0.001784392335352232)
(4.387859538265618e-07 -2.169314602757455e-07 -0.001747639098310407)
(4.346539297792132e-07 -2.165408960507977e-07 -0.001700659225085383)
(4.341669568169869e-07 -2.179719917092284e-07 -0.001718814689732018)
(4.363743140406249e-07 -2.206503488270293e-07 -0.00164599595064722)
(4.405711718936838e-07 -2.242402197746691e-07 -0.001436833465637361)
(4.463032930372978e-07 -2.284303919519465e-07 -0.001255296977257572)
(4.531126309006747e-07 -2.33190282732885e-07 -0.001028206123162604)
(4.823637411596378e-07 -2.771153359759273e-07 -0.0009441074199987335)
(4.377417263519994e-07 -2.621157294520892e-07 -0.001227459976645585)
(4.103391201519485e-07 -2.54507655632099e-07 -0.001889985747932382)
(3.932699054792503e-07 -2.504621790640794e-07 -0.002292695493926031)
(3.835307588309979e-07 -2.493883726232969e-07 -0.002317531384637219)
(3.788826546912019e-07 -2.502198193328298e-07 -0.002358273195842208)
(3.77881873132245e-07 -2.525091436793069e-07 -0.002495933833944927)
(3.795448208346349e-07 -2.558031894294305e-07 -0.002505220096601772)
(3.831464750271934e-07 -2.59872437259098e-07 -0.002278673109198031)
(3.881865951781727e-07 -2.644121110490065e-07 -0.002045843789378823)
(3.942254881631284e-07 -2.695493397688604e-07 -0.001960966951972385)
(4.284233052043983e-07 -2.925108934113337e-07 -0.0004050460991710332)
(3.838463280625943e-07 -2.847405544800336e-07 -0.0008528980733627779)
(3.564530885925752e-07 -2.816886355626313e-07 -0.001750054552482961)
(3.393474888765372e-07 -2.805876334215115e-07 -0.002393962568577061)
(3.294642774359685e-07 -2.814624817317452e-07 -0.002644109550188994)
(3.245656280270041e-07 -2.835934587260232e-07 -0.002689082054983925)
(3.232030437691863e-07 -2.867795158841105e-07 -0.002636791817638977)
(3.243990054541743e-07 -2.907045688342691e-07 -0.002558890518993818)
(3.274403436688688e-07 -2.952466552397216e-07 -0.002075055345732505)
(3.318214800272222e-07 -3.001497811581332e-07 -0.001257292612357547)
(3.371744655366595e-07 -3.055962181352928e-07 -0.001183245414555705)
(3.71966238422616e-07 -3.06122686497717e-07 -0.0008031419108870766)
(3.292951397711273e-07 -3.057503676671842e-07 -0.001004783041014808)
(3.030614307873199e-07 -3.073501065440771e-07 -0.00133367484771531)
(2.866502546489646e-07 -3.092519889865069e-07 -0.001448604781081978)
(2.770812442278915e-07 -3.121058773382283e-07 -0.00141801696836047)
(2.722113499104684e-07 -3.15549741867455e-07 -0.001355652168779202)
(2.706511666921439e-07 -3.196326080164007e-07 -0.001259846586130086)
(2.714681502603772e-07 -3.241829804663722e-07 -0.001195463129286596)
(2.739928636288261e-07 -3.291834970216303e-07 -0.0008382179770652448)
(2.77733726407421e-07 -3.344456059625087e-07 -0.0002219613795897947)
(2.824023964456632e-07 -3.401799774674056e-07 3.429983863335429e-05)
(3.133351533788131e-07 -3.178418749456836e-07 -0.001108137478012827)
(2.744046950163593e-07 -3.246180423916411e-07 -0.000966648291000468)
(2.50463639061409e-07 -3.307047175668167e-07 -0.0007007768281134806)
(2.3546680113934e-07 -3.355008459383483e-07 -0.0004180377332136533)
(2.266637257785836e-07 -3.402566838045657e-07 -0.0001840925109567102)
(2.220987485257124e-07 -3.449579806615332e-07 1.388103116084045e-05)
(2.205030169701686e-07 -3.498944614711275e-07 0.0001362897605519041)
(2.210281745826637e-07 -3.550377818242144e-07 0.0001319119152413459)
(2.230738415711568e-07 -3.604686804175798e-07 6.930964346483137e-05)
(2.261850606122215e-07 -3.660750871673725e-07 -6.654882567085631e-05)
(2.301445110719783e-07 -3.720727535969984e-07 -0.0001361349344625747)
(2.528804067452487e-07 -3.275714039449683e-07 -0.001240015973801287)
(2.194015606821346e-07 -3.408431162394826e-07 -0.0009490512005991834)
(1.988086769337801e-07 -3.510017529768293e-07 -0.0005708350881433121)
(1.85896510766458e-07 -3.584232988078654e-07 -0.0002905351685087351)
(1.782800505287212e-07 -3.64901379420026e-07 -6.110229440574501e-05)
(1.742772644192561e-07 -3.707392745824814e-07 7.24968849507134e-05)
(1.727966461979129e-07 -3.764447595419784e-07 0.0001249606425337167)
(1.731098502862717e-07 -3.821218628772241e-07 6.18350188538554e-05)
(1.747080136937202e-07 -3.879381978778681e-07 -3.141116093985201e-05)
(1.771936296725021e-07 -3.938583386788752e-07 -0.0001458089469843685)
(1.80411657622268e-07 -4.00087530485205e-07 -0.0001876217393185788)
(1.909594289886282e-07 -3.352269641867543e-07 -0.00118985751635965)
(1.644276955700631e-07 -3.539748974456806e-07 -0.0009429580495114399)
(1.48104517137838e-07 -3.675634723768317e-07 -0.0005407096943376718)
(1.378619263826076e-07 -3.771961180705039e-07 -0.0001328216779541365)
(1.317988786159662e-07 -3.851231574421902e-07 0.0001094478862867104)
(1.285823439660569e-07 -3.919165406276866e-07 9.443095442215845e-05)
(1.273472794830724e-07 -3.98267514802806e-07 4.525907669081832e-05)
(1.275170025778642e-07 -4.043932208888143e-07 -1.739217681502162e-05)
(1.286927388491873e-07 -4.105329312477275e-07 -9.704706204041273e-05)
(1.305549092051076e-07 -4.167204965018167e-07 -0.0002063078653027258)
(1.329999132911599e-07 -4.231421157634826e-07 -0.0002001855762957986)
(1.279340353138459e-07 -3.407403998780321e-07 -0.001138835934954423)
(1.095487314319977e-07 -3.636366267084832e-07 -0.0009070884203840841)
(9.823247681890966e-08 -3.79822256268924e-07 -0.0004809542347619049)
(9.112709219688044e-08 -3.91129107490591e-07 -3.283207048487008e-05)
(8.691053688568232e-08 -4.001527419942296e-07 0.0001618733086062216)
(8.465907515209027e-08 -4.07669097962797e-07 7.853580861448606e-05)
(8.377323794490646e-08 -4.145082571143934e-07 4.962753455210523e-06)
(8.385346531499074e-08 -4.20973886921526e-07 -7.662829994493042e-05)
(8.462555706741068e-08 -4.27358705709626e-07 -0.0001839539567441644)
(8.586549765162182e-08 -4.337516427664911e-07 -0.000297480612432223)
(8.751137118286412e-08 -4.403192471002085e-07 -0.0002225286416201701)
(6.417531555927996e-08 -3.440593359187003e-07 -0.003667977755869814)
(5.47702773289641e-08 -3.69542050862752e-07 -0.002129583262328201)
(4.897559362669154e-08 -3.873487322794476e-07 -0.0005580201828688381)
(4.533419676650508e-08 -3.997009314356249e-07 -0.000124747379245094)
(4.316899446817396e-08 -4.094094309016646e-07 0.0002254204180863356)
(4.200757708761368e-08 -4.173773837669745e-07 0.0001543129740628614)
(4.154322999468561e-08 -4.245215558500171e-07 -1.76353371047467e-05)
(4.157145988945923e-08 -4.311999191232922e-07 -0.0001654709542524552)
(4.195257461256907e-08 -4.377383576739587e-07 -0.0003062674532097106)
(4.257108908213576e-08 -4.442610677772832e-07 -0.0004448214896497581)
(4.339813483780682e-08 -4.50920936876797e-07 -0.0004340528089375973)
(0 -3.451361572265594e-07 -0.006178462161519438)
(0 -3.715185836196899e-07 -0.003387285410299339)
(0 -3.898992191550783e-07 -0.0006169362364412111)
(0 -4.025936258877204e-07 -0.0002459522798725409)
(0 -4.125431615046459e-07 0.0002492861896109747)
(0 -4.206600845484581e-07 0.0002294513758898309)
(0 -4.279105988474404e-07 -2.067319941367951e-05)
(0 -4.346600774997663e-07 -0.0002197151260065479)
(0 -4.412512061214808e-07 -0.00037552952849865)
(0 -4.478185297727301e-07 -0.0005446847783467538)
(0 -4.545086355181136e-07 -0.0006084023167985568)
(5.81376437057015e-07 -2.414479657312351e-07 -0.0009416032176985222)
(5.418647415712515e-07 -2.141057821932355e-07 -0.0011775178586328)
(5.176604766660453e-07 -1.98673586452002e-07 -0.001468799122922847)
(5.027072225772692e-07 -1.895554759404714e-07 -0.001561812089281662)
(4.945317301995209e-07 -1.850864778554614e-07 -0.001738732506929945)
(4.911496745667513e-07 -1.836203293139625e-07 -0.00179424083105108)
(4.913021021667568e-07 -1.842834669468242e-07 -0.001625745260361024)
(4.940931775741446e-07 -1.864056717369817e-07 -0.001438483194591013)
(4.988805960847022e-07 -1.895525813836817e-07 -0.001202615128686284)
(5.052035781416626e-07 -1.93423075980362e-07 -0.0008470531825962511)
(5.129144197690172e-07 -1.979554646059769e-07 -0.0007412039610631565)
(5.334552082665783e-07 -2.600530537977827e-07 -0.001937613706508788)
(4.905768936115444e-07 -2.384028573660944e-07 -0.001540902246091427)
(4.642713577230067e-07 -2.265889533192067e-07 -0.001486028507117045)
(4.479414687101941e-07 -2.198200892888675e-07 -0.001784392335352235)
(4.387859538265616e-07 -2.169314602757455e-07 -0.001747639098310408)
(4.346539297792131e-07 -2.165408960507977e-07 -0.001700659225085383)
(4.341669568169867e-07 -2.179719917092285e-07 -0.001718814689732021)
(4.363743140406249e-07 -2.206503488270294e-07 -0.001645995950647221)
(4.405711718936835e-07 -2.242402197746692e-07 -0.001436833465637368)
(4.463032930372977e-07 -2.284303919519465e-07 -0.001255296977257575)
(4.531126309006747e-07 -2.33190282732885e-07 -0.001028206123162604)
(4.823637411596378e-07 -2.771153359759273e-07 -0.0009441074199987341)
(4.377417263519992e-07 -2.621157294520892e-07 -0.001227459976645586)
(4.103391201519484e-07 -2.54507655632099e-07 -0.001889985747932383)
(3.932699054792501e-07 -2.504621790640795e-07 -0.002292695493926032)
(3.835307588309979e-07 -2.49388372623297e-07 -0.002317531384637219)
(3.788826546912021e-07 -2.502198193328296e-07 -0.002358273195842205)
(3.778818731322448e-07 -2.52509143679307e-07 -0.002495933833944928)
(3.795448208346348e-07 -2.558031894294307e-07 -0.002505220096601772)
(3.831464750271934e-07 -2.598724372590979e-07 -0.002278673109198031)
(3.881865951781726e-07 -2.644121110490065e-07 -0.002045843789378823)
(3.942254881631283e-07 -2.695493397688604e-07 -0.001960966951972385)
(4.284233052043986e-07 -2.925108934113337e-07 -0.0004050460991710319)
(3.838463280625945e-07 -2.847405544800335e-07 -0.0008528980733627776)
(3.564530885925755e-07 -2.816886355626311e-07 -0.001750054552482962)
(3.393474888765375e-07 -2.805876334215113e-07 -0.002393962568577059)
(3.294642774359687e-07 -2.814624817317451e-07 -0.002644109550188993)
(3.245656280270041e-07 -2.835934587260232e-07 -0.002689082054983925)
(3.232030437691864e-07 -2.867795158841104e-07 -0.002636791817638977)
(3.243990054541745e-07 -2.90704568834269e-07 -0.002558890518993818)
(3.274403436688689e-07 -2.952466552397216e-07 -0.002075055345732507)
(3.318214800272223e-07 -3.001497811581331e-07 -0.001257292612357555)
(3.371744655366596e-07 -3.055962181352928e-07 -0.001183245414555711)
(3.719662384226158e-07 -3.061226864977171e-07 -0.0008031419108870783)
(3.292951397711269e-07 -3.057503676671844e-07 -0.001004783041014809)
(3.030614307873196e-07 -3.073501065440772e-07 -0.001333674847715307)
(2.866502546489646e-07 -3.092519889865069e-07 -0.001448604781081978)
(2.770812442278915e-07 -3.121058773382283e-07 -0.00141801696836047)
(2.722113499104684e-07 -3.15549741867455e-07 -0.001355652168779204)
(2.706511666921441e-07 -3.196326080164007e-07 -0.001259846586130095)
(2.714681502603772e-07 -3.241829804663722e-07 -0.001195463129286598)
(2.739928636288261e-07 -3.291834970216302e-07 -0.0008382179770652475)
(2.777337264074209e-07 -3.344456059625087e-07 -0.0002219613795897947)
(2.824023964456633e-07 -3.401799774674056e-07 3.429983863335444e-05)
(3.133351533788131e-07 -3.178418749456836e-07 -0.001108137478012827)
(2.744046950163592e-07 -3.246180423916412e-07 -0.0009666482910004674)
(2.504636390614088e-07 -3.307047175668167e-07 -0.0007007768281134799)
(2.354668011393398e-07 -3.355008459383484e-07 -0.0004180377332136527)
(2.266637257785834e-07 -3.402566838045658e-07 -0.0001840925109567108)
(2.220987485257124e-07 -3.449579806615332e-07 1.388103116083988e-05)
(2.205030169701686e-07 -3.498944614711275e-07 0.0001362897605519041)
(2.210281745826637e-07 -3.550377818242144e-07 0.0001319119152413459)
(2.230738415711568e-07 -3.604686804175799e-07 6.930964346483076e-05)
(2.261850606122215e-07 -3.660750871673725e-07 -6.654882567085633e-05)
(2.301445110719783e-07 -3.720727535969984e-07 -0.0001361349344625747)
(2.528804067452492e-07 -3.275714039449683e-07 -0.001240015973801287)
(2.194015606821345e-07 -3.408431162394826e-07 -0.0009490512005991819)
(1.988086769337801e-07 -3.510017529768293e-07 -0.0005708350881433121)
(1.858965107664581e-07 -3.584232988078654e-07 -0.000290535168508736)
(1.782800505287213e-07 -3.649013794200259e-07 -6.110229440574554e-05)
(1.742772644192562e-07 -3.707392745824813e-07 7.249688495071338e-05)
(1.72796646197913e-07 -3.764447595419784e-07 0.0001249606425337168)
(1.731098502862717e-07 -3.82121862877224e-07 6.183501885385531e-05)
(1.747080136937202e-07 -3.879381978778681e-07 -3.141116093985201e-05)
(1.771936296725021e-07 -3.938583386788751e-07 -0.0001458089469843679)
(1.80411657622268e-07 -4.00087530485205e-07 -0.0001876217393185788)
(1.909594289886281e-07 -3.352269641867542e-07 -0.001189857516359649)
(1.644276955700628e-07 -3.539748974456806e-07 -0.0009429580495114378)
(1.481045171378379e-07 -3.675634723768317e-07 -0.0005407096943376717)
(1.378619263826075e-07 -3.771961180705039e-07 -0.0001328216779541387)
(1.317988786159661e-07 -3.851231574421902e-07 0.0001094478862867104)
(1.285823439660569e-07 -3.919165406276865e-07 9.443095442215863e-05)
(1.273472794830724e-07 -3.98267514802806e-07 4.525907669081842e-05)
(1.275170025778641e-07 -4.043932208888144e-07 -1.739217681502228e-05)
(1.286927388491872e-07 -4.105329312477276e-07 -9.70470620404128e-05)
(1.305549092051076e-07 -4.167204965018167e-07 -0.000206307865302725)
(1.329999132911598e-07 -4.231421157634826e-07 -0.0002001855762957986)
(1.279340353138459e-07 -3.407403998780321e-07 -0.001138835934954423)
(1.095487314319976e-07 -3.636366267084834e-07 -0.000907088420384081)
(9.823247681890966e-08 -3.79822256268924e-07 -0.0004809542347619049)
(9.112709219688046e-08 -3.91129107490591e-07 -3.28320704848712e-05)
(8.691053688568232e-08 -4.001527419942296e-07 0.0001618733086062216)
(8.465907515209031e-08 -4.076690979627969e-07 7.853580861448656e-05)
(8.377323794490646e-08 -4.145082571143934e-07 4.962753455210524e-06)
(8.385346531499073e-08 -4.20973886921526e-07 -7.662829994493129e-05)
(8.462555706741068e-08 -4.27358705709626e-07 -0.0001839539567441644)
(8.586549765162184e-08 -4.337516427664911e-07 -0.0002974806124322223)
(8.751137118286413e-08 -4.403192471002085e-07 -0.0002225286416201701)
(6.417531555928025e-08 -3.440593359187003e-07 -0.003667977755869792)
(5.47702773289644e-08 -3.69542050862752e-07 -0.00212958326232818)
(4.897559362669187e-08 -3.873487322794476e-07 -0.0005580201828688374)
(4.533419676650532e-08 -3.997009314356249e-07 -0.000124747379245094)
(4.316899446817411e-08 -4.094094309016645e-07 0.0002254204180863354)
(4.200757708761373e-08 -4.173773837669744e-07 0.0001543129740628616)
(4.154322999468565e-08 -4.245215558500171e-07 -1.763533710474634e-05)
(4.157145988945932e-08 -4.311999191232922e-07 -0.0001654709542524559)
(4.195257461256919e-08 -4.377383576739587e-07 -0.0003062674532097103)
(4.257108908213582e-08 -4.442610677772832e-07 -0.0004448214896497581)
(4.339813483780683e-08 -4.50920936876797e-07 -0.0004340528089375979)
(0 -3.451361572265591e-07 -0.006178462161519437)
(0 -3.7151858361969e-07 -0.003387285410299314)
(0 -3.898992191550783e-07 -0.0006169362364412112)
(0 -4.025936258877203e-07 -0.0002459522798725444)
(0 -4.125431615046459e-07 0.0002492861896109756)
(0 -4.206600845484581e-07 0.0002294513758898309)
(0 -4.279105988474404e-07 -2.067319941367727e-05)
(0 -4.346600774997663e-07 -0.0002197151260065476)
(0 -4.412512061214808e-07 -0.0003755295284986507)
(0 -4.478185297727301e-07 -0.0005446847783467538)
(0 -4.545086355181136e-07 -0.0006084023167985566)
(8.276934281112412e-07 0 -0.0001682450996004459)
(8.370131012022799e-07 0 -0.0003766046978052368)
(8.431278294225073e-07 0 -0.0005844550556945754)
(8.477424987421769e-07 0 -0.0005771189217890853)
(8.526597649721995e-07 0 -0.00056398196011456)
(8.583327447663729e-07 0 -0.0005659343304512794)
(8.651776003465464e-07 0 -0.0006053276885788115)
(8.732428697298639e-07 0 -0.0006307724434912479)
(8.825720257878764e-07 0 -0.0006153637922783609)
(8.930828202360105e-07 0 -0.0005624135149781288)
(9.047524024061604e-07 0 -0.0004308584172829818)
(8.251014683323475e-07 -2.655887221002233e-08 -0.0005545190895462346)
(8.335734865511202e-07 -1.844988257883296e-08 -0.0006393517810418297)
(8.391515574421123e-07 -1.360915096976329e-08 -0.0006852163807181996)
(8.434381112712675e-07 -1.061369560094177e-08 -0.0006247324589752439)
(8.481288210652907e-07 -8.86982478721976e-09 -0.000581177304146437)
(8.536538101472013e-07 -7.936484738773542e-09 -0.0005601078339160542)
(8.60389950881285e-07 -7.546889380979095e-09 -0.0005805974843472899)
(8.683733586602362e-07 -7.518764365292822e-09 -0.0006078498004250852)
(8.776355108090098e-07 -7.736360776329836e-09 -0.0006064127859441778)
(8.880804267557893e-07 -8.089721925594436e-09 -0.0005581280026289456)
(8.996982264714989e-07 -8.595269793708415e-09 -0.0004241083023969909)
(8.172795857658581e-07 -5.296318488800631e-08 -0.000986912495304443)
(8.232956193315785e-07 -3.715465823412376e-08 -0.0009430266829698257)
(8.273472264676975e-07 -2.774306189620194e-08 -0.0006815722258577909)
(8.306512601321229e-07 -2.192772267272186e-08 -0.0003620026759590683)
(8.346922478144168e-07 -1.855132462488128e-08 -0.000303798377041681)
(8.397762947027273e-07 -1.675386568411133e-08 -0.0004289607834428906)
(8.461971707564503e-07 -1.6015727356873e-08 -0.0005126337272742949)
(8.539389571794842e-07 -1.59821784099991e-08 -0.0005406976156941871)
(8.630030429528496e-07 -1.642685143565718e-08 -0.0005662840049145848)
(8.732572374140896e-07 -1.713729190373475e-08 -0.0005378075736945679)
(8.847178044802349e-07 -1.814073869818786e-08 -0.0004242463288498414)
(8.042729038155236e-07 -7.908147183051733e-08 -0.001062152295679873)
(8.063673704843526e-07 -5.640207581007292e-08 -0.0007207969011836467)
(8.079908393942764e-07 -4.292611465531055e-08 5.476690390430833e-05)
(8.097297768143874e-07 -3.461048061150678e-08 0.0005738344692020038)
(8.127360977238714e-07 -2.980012828334164e-08 0.0005985415651478769)
(8.171170051902128e-07 -2.72588847983357e-08 0.0004430607454593719)
(8.230345732875942e-07 -2.624143907320473e-08 0.0003389505400189915)
(8.303903370056453e-07 -2.62388043889219e-08 -3.646973166773078e-05)
(8.391376292954961e-07 -2.692369290154344e-08 -0.0004267362122361581)
(8.490878142786954e-07 -2.799515490620616e-08 -0.000482056336218096)
(8.60297653350019e-07 -2.947875544796392e-08 -0.0004378569244085012)
(7.8619319760331e-07 -1.047538737100059e-07 -0.0008669280820215913)
(7.831363506902986e-07 -7.640126805509271e-08 -0.0002051018493015006)
(7.815701800786155e-07 -5.95862725898472e-08 0.000701505231424167)
(7.812531987245598e-07 -4.92264826277749e-08 0.000978177324457076)
(7.8289944678331e-07 -4.326552179283999e-08 0.0009837210731507605)
(7.863550397209708e-07 -4.015211865963451e-08 0.0009305227669131319)
(7.916089784070295e-07 -3.89544116960763e-08 0.0008608244639796553)
(7.984555671075052e-07 -3.903484232898639e-08 0.0004798466450876334)
(8.067840253214287e-07 -3.997931425914891e-08 0.0001176418591578707)
(8.163351777514502e-07 -4.141746947992035e-08 -6.72255686966981e-05)
(8.272132279332906e-07 -4.335870817970253e-08 -0.0002848582582582376)
(7.631830724526146e-07 -1.29837607649563e-07 -0.0004846479767467861)
(7.540580416397302e-07 -9.729761541549836e-08 -7.94111397733531e-06)
(7.48732355370328e-07 -7.804841374202934e-08 0.0004628362647475558)
(7.459916686675588e-07 -6.621414468019859e-08 0.000503907363245155)
(7.46032125777892e-07 -5.945652449132022e-08 0.0004777990527255789)
(7.483928597644647e-07 -5.598555813762685e-08 0.000352342617549002)
(7.528585405987144e-07 -5.473183806624093e-08 0.0002494752893111565)
(7.590990971165802e-07 -5.496109832014205e-08 0.0002761660879479306)
(7.669263363741159e-07 -5.619045516228633e-08 0.0004000644546616472)
(7.760040160794862e-07 -5.800229030798884e-08 0.0003712850861504821)
(7.86480873105159e-07 -6.037223629866743e-08 0.0002263925275940118)
(7.354198858813723e-07 -1.54187667275122e-07 0.0001884655943333914)
(7.196800316931539e-07 -1.191524234397658e-07 4.854734894832872e-05)
(7.102528361434853e-07 -9.8501753090238e-08 -7.396106873354048e-05)
(7.048664577091033e-07 -8.58439019712364e-08 -3.458395431034531e-05)
(7.031496012644251e-07 -7.869448073923917e-08 -0.0001172539815923433)
(7.043076889316459e-07 -7.51117335564633e-08 -0.0003078025758393287)
(7.079017975897648e-07 -7.394524789577099e-08 -0.0003187543257230136)
(7.134690793978571e-07 -7.439983824465984e-08 -8.116360070419e-05)
(7.2073424892782e-07 -7.594584538770829e-08 0.0002051722426625783)
(7.292857923688772e-07 -7.814088189827334e-08 0.0004116299928352283)
(7.393064435622071e-07 -8.091178930517773e-08 0.0005157601953722223)
(7.031107994704677e-07 -1.776622789805653e-07 0.0007216534616554769)
(6.80615117112842e-07 -1.419358059987364e-07 8.195413246807704e-05)
(6.669948075172323e-07 -1.209869705871345e-07 -0.0004406012344566281)
(6.589008985662842e-07 -1.08201734052875e-07 -0.0003705723400783959)
(6.553781514521007e-07 -1.010937274525629e-07 -0.000632621878744249)
(6.552921942104387e-07 -9.766222977453574e-08 -0.0008930906743782457)
(6.579744821845948e-07 -9.673655597270453e-08 -0.0009172205294308067)
(6.628304240543091e-07 -9.749950586015063e-08 -0.0005744501035508328)
(6.694920480759548e-07 -9.939883650826202e-08 -0.0001440486410670323)
(6.774843282530391e-07 -1.019917365474662e-07 0.0001858634263382466)
(6.869984071444346e-07 -1.051354842791981e-07 0.0004369030822871636)
(6.66491374877023e-07 -2.001211158722555e-07 0.0006133691668761613)
(6.375166051991064e-07 -1.655198074186404e-07 0.0001997178848794968)
(6.19870756814303e-07 -1.453854366478413e-07 -0.0008391143517459626)
(6.091740149909139e-07 -1.331753687085384e-07 -0.001062672096904699)
(6.039045846468355e-07 -1.26545875312387e-07 -0.0007943592881786884)
(6.026033648569485e-07 -1.235302069718347e-07 -0.0008265972006350165)
(6.043793086592016e-07 -1.230003917898166e-07 -0.0008356895508861424)
(6.085165698334121e-07 -1.241549106027056e-07 -0.0006762125734724087)
(6.145515932714775e-07 -1.264511420095662e-07 -0.0004554103308303601)
(6.219704508875242e-07 -1.294642002931119e-07 -0.0001063607847049821)
(6.309457442299559e-07 -1.329902697009009e-07 -0.000538274716713658)
(6.258201504796634e-07 -2.214276454514029e-07 0.000385797797165181)
(5.910491867783772e-07 -1.896811555309903e-07 -0.0003160707546204745)
(5.697976855869092e-07 -1.714222841811864e-07 -0.00160222342872084)
(5.567642119141178e-07 -1.604578308501896e-07 -0.001745234232137317)
(5.499105977436251e-07 -1.547231000764625e-07 -0.001384104116030277)
(5.474876096222772e-07 -1.523733171908837e-07 -0.001374216466839226)
(5.484027102281511e-07 -1.523820200018412e-07 -0.001270340317888036)
(5.518356917384258e-07 -1.540014767695643e-07 -0.001198490913902383)
(5.572323571864409e-07 -1.567273248422339e-07 -0.001106318263196543)
(5.640763463823411e-07 -1.602012429892933e-07 -0.0006989632169083912)
(5.724253295450815e-07 -1.641126010316308e-07 -0.001135641186294664)
(8.276934281112411e-07 0 -0.0001682450996004459)
(8.370131012022799e-07 0 -0.0003766046978052367)
(8.431278294225073e-07 0 -0.0005844550556945754)
(8.477424987421769e-07 0 -0.0005771189217890853)
(8.526597649721995e-07 0 -0.00056398196011456)
(8.583327447663729e-07 0 -0.0005659343304512794)
(8.651776003465464e-07 0 -0.0006053276885788114)
(8.732428697298639e-07 0 -0.0006307724434912479)
(8.825720257878764e-07 0 -0.0006153637922783609)
(8.930828202360104e-07 0 -0.0005624135149781295)
(9.047524024061604e-07 0 -0.0004308584172829814)
(8.251014683323475e-07 -2.655887221002245e-08 -0.0005545190895462379)
(8.335734865511202e-07 -1.844988257883307e-08 -0.0006393517810418326)
(8.391515574421122e-07 -1.360915096976338e-08 -0.0006852163807182011)
(8.434381112712674e-07 -1.061369560094182e-08 -0.0006247324589752443)
(8.481288210652907e-07 -8.869824787219763e-09 -0.0005811773041464369)
(8.536538101472013e-07 -7.936484738773552e-09 -0.0005601078339160542)
(8.60389950881285e-07 -7.546889380979117e-09 -0.0005805974843472897)
(8.683733586602363e-07 -7.518764365292845e-09 -0.0006078498004250851)
(8.776355108090098e-07 -7.736360776329856e-09 -0.0006064127859441777)
(8.880804267557892e-07 -8.089721925594449e-09 -0.0005581280026289462)
(8.996982264714989e-07 -8.595269793708415e-09 -0.0004241083023969909)
(8.172795857658581e-07 -5.296318488800631e-08 -0.000986912495304443)
(8.232956193315785e-07 -3.715465823412369e-08 -0.0009430266829698254)
(8.273472264676975e-07 -2.774306189620194e-08 -0.0006815722258577895)
(8.306512601321228e-07 -2.19277226727219e-08 -0.0003620026759590672)
(8.346922478144168e-07 -1.855132462488128e-08 -0.0003037983770416808)
(8.397762947027272e-07 -1.675386568411134e-08 -0.0004289607834428908)
(8.461971707564502e-07 -1.601572735687302e-08 -0.0005126337272742947)
(8.539389571794842e-07 -1.598217840999912e-08 -0.000540697615694187)
(8.630030429528496e-07 -1.642685143565718e-08 -0.0005662840049145847)
(8.732572374140895e-07 -1.713729190373475e-08 -0.0005378075736945684)
(8.847178044802349e-07 -1.814073869818787e-08 -0.0004242463288498415)
(8.042729038155237e-07 -7.908147183051732e-08 -0.001062152295679872)
(8.063673704843527e-07 -5.64020758100728e-08 -0.000720796901183649)
(8.079908393942765e-07 -4.292611465531045e-08 5.476690390430198e-05)
(8.097297768143874e-07 -3.461048061150674e-08 0.0005738344692019984)
(8.127360977238714e-07 -2.980012828334163e-08 0.0005985415651478755)
(8.171170051902128e-07 -2.725888479833567e-08 0.0004430607454593687)
(8.230345732875943e-07 -2.624143907320469e-08 0.0003389505400189865)
(8.303903370056454e-07 -2.623880438892186e-08 -3.646973166773463e-05)
(8.391376292954962e-07 -2.692369290154341e-08 -0.0004267362122361586)
(8.490878142786954e-07 -2.799515490620612e-08 -0.0004820563362180962)
(8.60297653350019e-07 -2.947875544796392e-08 -0.0004378569244085012)
(7.861931976033099e-07 -1.047538737100061e-07 -0.0008669280820215895)
(7.831363506902985e-07 -7.640126805509275e-08 -0.0002051018493014979)
(7.815701800786153e-07 -5.958627258984723e-08 0.0007015052314241674)
(7.812531987245598e-07 -4.92264826277749e-08 0.000978177324457076)
(7.8289944678331e-07 -4.326552179283999e-08 0.0009837210731507605)
(7.863550397209709e-07 -4.01521186596345e-08 0.000930522766913132)
(7.916089784070295e-07 -3.895441169607628e-08 0.0008608244639796565)
(7.984555671075053e-07 -3.903484232898637e-08 0.0004798466450876367)
(8.067840253214287e-07 -3.997931425914891e-08 0.0001176418591578718)
(8.163351777514502e-07 -4.141746947992035e-08 -6.722556869669715e-05)
(8.272132279332906e-07 -4.335870817970253e-08 -0.0002848582582582376)
(7.631830724526146e-07 -1.29837607649563e-07 -0.0004846479767467861)
(7.540580416397302e-07 -9.729761541549839e-08 -7.941113977334912e-06)
(7.487323553703278e-07 -7.804841374202949e-08 0.0004628362647475529)
(7.459916686675587e-07 -6.621414468019866e-08 0.0005039073632451533)
(7.460321257778919e-07 -5.945652449132028e-08 0.0004777990527255775)
(7.483928597644647e-07 -5.598555813762687e-08 0.0003523426175490012)
(7.528585405987144e-07 -5.473183806624093e-08 0.0002494752893111565)
(7.590990971165802e-07 -5.496109832014209e-08 0.0002761660879479295)
(7.669263363741157e-07 -5.619045516228636e-08 0.0004000644546616466)
(7.760040160794862e-07 -5.800229030798885e-08 0.0003712850861504825)
(7.864808731051589e-07 -6.037223629866741e-08 0.0002263925275940116)
(7.354198858813725e-07 -1.54187667275122e-07 0.0001884655943333865)
(7.196800316931538e-07 -1.191524234397657e-07 4.85473489483273e-05)
(7.102528361434854e-07 -9.850175309023795e-08 -7.396106873353983e-05)
(7.048664577091033e-07 -8.584390197123639e-08 -3.458395431034479e-05)
(7.031496012644252e-07 -7.869448073923915e-08 -0.0001172539815923432)
(7.04307688931646e-07 -7.511173355646331e-08 -0.0003078025758393283)
(7.079017975897649e-07 -7.394524789577095e-08 -0.000318754325723013)
(7.134690793978571e-07 -7.439983824465984e-08 -8.116360070418917e-05)
(7.2073424892782e-07 -7.594584538770829e-08 0.0002051722426625783)
(7.292857923688772e-07 -7.814088189827328e-08 0.0004116299928352281)
(7.393064435622071e-07 -8.091178930517773e-08 0.0005157601953722223)
(7.031107994704676e-07 -1.776622789805655e-07 0.000721653461655477)
(6.806151171128418e-07 -1.419358059987363e-07 8.19541324680673e-05)
(6.669948075172322e-07 -1.209869705871345e-07 -0.0004406012344566278)
(6.589008985662841e-07 -1.082017340528751e-07 -0.0003705723400783959)
(6.553781514521006e-07 -1.01093727452563e-07 -0.0006326218787442502)