/*--------------------------------*- C++ -*----------------------------------*\
| =========                 |                                                 |
| \\      /  F ield         | foam-extend: Open Source CFD                    |
|  \\    /   O peration     | Version:     4.1                                |
|   \\  /    A nd           | Web:         http://www.foam-extend.org         |
|    \\/     M anipulation  |                                                 |
\*---------------------------------------------------------------------------*/
FoamFile
{
    version     2.0;
    format      ascii;
    class       volScalarField;
    location    "1";
    object      sigmaEq;
}
// * * * * * * * * * * * * * * * * * * * * * * * * * * * * * * * * * * * * * //

dimensions      [1 -1 -2 0 0 0 0];

internalField   nonuniform List<scalar> 
1000
(
3794935560.908656
1593225242.878061
1339938816.484005
534841004.1377754
480564807.8741839
738152977.1519202
885807029.0938226
774501709.8182102
710540280.7441822
1031556085.884159
3218784804.05988
1405750721.162637
1350489324.778797
1479582564.910079
1377662748.260043
1753048919.172348
1742110086.046671
1794322596.016552
1549191078.361027
1421403707.52696
2140777232.379527
2674046969.240067
1767779410.743705
948115452.3619666
935993342.2348869
607566882.3208097
211713120.797557
655632785.0484399
1092664193.565006
1792146763.759169
1619286225.472882
2171277949.026569
2664744538.584694
2996429897.831482
3053075558.939923
2993576138.157273
2861459065.317428
3130167692.379758
4202286413.29608
2095909083.987177
990170278.8160602
1149169240.902019
2655606257.174779
3094224353.418457
3079402270.60794
3173566893.395215
2806840539.837584
2525969571.103351
1056580478.467911
429932813.3612879
909139348.3945596
1172762923.989222
532796853.0956646
549470672.5558076
678184661.6958358
435908090.0786992
190777469.0510182
356371510.480615
405598300.5650823
122169080.9342903
714686643.5326979
989677851.5997657
1052017982.118972
1007106168.492652
300456148.0534938
205182839.4547762
238610252.8162692
235234643.9006236
277941951.9552643
178568949.4817615
617764238.4538934
1159112676.126976
1166303646.424697
557378573.1353519
125818767.9536828
158737942.8110411
195653784.3782455
273569493.4298822
366529793.9852164
201189117.7833324
8235050656.558965
1115011495.14214
1365499165.027366
598478127.6897035
444105618.6184982
265727801.1212991
294528498.8906695
389175029.0408782
380636366.6117237
323116954.8748732
10892590213.75659
7409741015.615185
1104820051.465669
1333047614.487384
257605251.6635599
665051444.0425504
541466413.2767774
435361538.9279757
476619712.3409538
281286796.3041978
1356381548.368877
680919047.4650536
182771416.1657196
82904280.85850298
14199695.93799216
111204929.6972006
98786750.44053674
45290813.75479628
137278112.8457544
345822952.7620922
1400226592.539021
603750167.6979184
557152902.5535212
875774973.5362587
516376762.0949819
113308588.5773415
189134337.3138463
108169376.4079742
121828822.5036474
352897577.6603961
270178303.5054693
1807013319.295197
2925928968.531013
2315665907.059075
2233154330.994224
1953969839.549886
1745468517.639833
388130564.2294079
172289422.2640665
243682476.8138809
1751701302.503173
3920053349.128032
1982292360.779146
849248631.385255
1012876894.64123
1182064735.135021
2053166146.566191
2295178945.76585
1094690923.11028
476672239.2320363
2187246377.932638
1885562569.708973
1321199569.467239
1169179696.888672
1296703167.64654
1360520254.786763
1266786539.88339
345416291.7498924
908130620.4407431
1435648366.080581
2272923266.326375
1748708141.992004
1461797044.409048
1367483244.727713
1573026297.634989
1503893740.738993
992918234.9463879
777312589.6182673
563730068.2570107
472275316.7057408
2200467437.515146
1935193131.310888
788278723.6162339
1002426264.838561
1616233439.934241
1182239603.419436
1714917267.388587
1146268622.610727
904861750.5578595
375521769.3304646
1930215742.141235
1828956575.361937
3015079687.783711
1318920918.47799
889489678.9492103
508653285.0817752
652747105.8290832
1450216918.354672
1334974018.899966
1124108858.804862
777523588.1050344
4490962586.326899
2666790048.853395
3052211133.36746
1481361560.527802
1269837743.542888
701015038.314088
1361943586.523125
1309806675.845346
2024206618.44955
5404027035.847987
3295591155.722305
1920987956.255361
923176445.3472224
1255545863.503788
886961794.0403059
682072284.7945335
666883012.691654
1372018652.642825
358972206.6862108
474183192.1510115
444476296.8334253
182029801.8877237
69530153.8444837
79537691.82119352
83101238.5379325
82803296.33355407
76295180.76795025
251777678.0800287
133608494.5037914
201997133.9205523
218024524.8304155
265904205.9136675
304810655.4011804
320555996.8457863
315374880.6572095
273665321.1172146
257594626.4425173
219987249.1411459
90117388.56913796
502461998.6399615
485318998.0951707
211278159.6904796
72343911.74147245
78429917.86241065
135302725.8266492
69779802.0302386
194289365.588769
337227206.3757511
216557398.0411032
263177745.2516551
292988022.878224
334077373.0927453
397822764.7114016
426894585.3088098
433411434.4773555
405144467.3571753
383187028.9161065
406306747.940089
265066775.0191546
430388023.7667636
520690043.2491179
252741160.4570009
29785245.43062163
44648391.0086038
114700626.6833527
65161677.11917075
138656411.9830559
292197018.6165679
323135922.3617256
129680164.4450194
179119201.6438917
199571943.2434649
243163121.684246
306522786.946127
355498361.8011146
338141831.1657548
312780459.0098625
361608263.2699674
267033969.7706829
275951208.8917282
486116351.4311388
350236402.1163253
73772554.05028515
59166550.77186476
117652988.8209506
83666505.80288804
57601816.11324906
222940173.8077944
378095592.7296343
290512922.5247148
58160801.98090207
105672795.7734069
155114585.0959709
191836690.9362823
232858599.7218833
270148824.7213872
247953029.4414757
284159111.0309346
212776164.7813083
863256584.6601235
212444624.4554155
434192769.7741317
216592711.5435213
113206998.7721434
128138665.5646654
100025165.8029039
108678136.7486842
126883345.7705658
318783178.8301669
417488911.7847695
281388356.641687
145862176.8960981
191988136.969139
212351044.4412827
230109592.9689526
248812874.1446522
240647320.8151101
252376034.0032129
229869937.9049435
1099223607.534636
1182687439.322176
105511451.694643
304301995.112601
268335570.8565864
208930973.0931187
97374691.03878315
105937991.2337222
49532345.43016488
122655791.5323724
285887396.2707279
365745324.316963
202301233.0318185
112102885.7589173
121105247.1121287
99464339.58955321
157883856.9027584
243986759.3365416
290457997.6607015
307388691.7974371
154546968.1011592
936732141.7780852
1171979605.882131
218295404.2285376
247830725.584603
269024961.6101892
131633768.5634204
71336809.98289958
191110744.8841105
246176522.681269
174180652.0615059
224700822.2449088
296297093.0947692
140634202.11386
182361632.1846053
190953706.8310235
210323782.2375541
185967852.0198759
179022256.694454
207993594.1583137
2258922425.815088
483746522.2159203
865879799.9355016
1363033248.601031
244128290.8930256
222741038.9490297
242354027.6453368
304930966.4003464
286464110.7958893
278892076.5670834
397006149.9914643
380567057.9195064
245082311.8462904
230706797.4744962
120386149.8766357
150819036.7477603
121020252.5369992
124400976.1493009
97247707.20148301
64574039.86628433
3562905755.215517
3252587329.387112
1341762568.339285
934968398.1999964
1564731312.237541
66572166.82018293
414236932.8125173
205213507.7077943
263089852.4669746
396703264.8155984
299915950.7476913
262993204.9566587
368254689.8665254
205420356.5639016
121570732.6758852
17752591.29403841
203160422.2387206
218102447.7528427
151035018.1538283
29495416.88523708
1526805131.42586
890435977.243489
2156525954.497701
1985893126.306974
808527684.4729321
1179029208.014821
324396821.855711
549535154.7832956
265536377.5834439
228392733.3461986
307028881.9684811
260653587.2489002
73421300.87762471
234216770.0631517
173874841.7137864
300629778.0876087
379799791.7823693
343083607.7852799
155091327.3189955
94447402.58000791
1271328083.725131
996002254.5642823
284219527.128045
2345637769.380972
1399430320.411611
599877171.2214403
363069639.2147903
684906273.1465936
308393353.4395148
209162748.2002575
192053656.3992957
164022668.9934883
186671674.1375684
112795586.9882625
435596070.5107936
492643084.6679996
460400335.5127948
240807723.2522997
273715766.72385
191368736.0733014
1647875673.639655
1236811775.861976
2383258171.6456
865718429.2940278
2163379966.200589
181751448.6652425
651231728.3620375
429930652.9882326
195927099.8233083
170976497.4921952
192165999.0980578
176348422.4281487
82725276.02630416
450586857.6983463
592817347.2317351
518318503.9354953
242607158.3068265
210935371.6112767
348156106.332553
187696533.0924279
904613715.3064903
1268785996.566519
432467170.522587
1934654103.697021
952229040.2167817
927998342.8789314
506561175.6759729
186059133.5386119
117450885.9843543
156916019.6319072
187984226.4645965
101937663.8930616
403873092.1660778
539034902.055498
568560360.512018
242411827.6320058
200792689.9041706
364888147.3411382
377791805.28333
241879747.8556691
1249686681.036793
1285994401.671674
616577282.1295884
1224988020.096443
818937037.1123497
935799833.3586425
928667876.8053663
267617986.1445795
206676580.5590819
154009141.686143
175571166.8167367
438863476.4796039
458209135.2419903
520973202.0589317
268996045.8106676
202599982.7630283
354386631.0052648
371159001.0145853
384737301.2263616
237406280.7841421
2359427937.293542
1714218139.838176
2269092899.953015
636282767.485316
487943349.3344915
784180014.5564585
957049981.5371491
296402424.0465049
367225817.4638419
713886580.5999742
907807668.430285
800138537.8997493
636610682.5194377
181684716.2053372
272994207.565699
342191228.8590913
381227106.4251683
375916787.8993128
358268383.7687507
229592611.4838094
1431002754.510403
1821773640.693697
848263574.2707481
1108066428.3361
350933581.8201787
695087549.2215922
453922257.4331188
1485091670.490838
1128691801.580372
1048203748.993924
954390539.8915056
925650000.3886125
781283709.6420416
482734869.4555706
140426530.6936332
317449445.5248545
316835296.5768408
394431028.8199825
378003371.1193556
260279299.3938652
280107007.6194454
917641766.5383458
586854436.1059052
621860075.2634569
793321318.7783623
335034212.7268206
887886030.8404225
273971206.2347661
533034832.2522724
612261964.3667768
1166599200.271617
932119364.1361332
843450258.0469311
546999357.4327562
498275161.3852134
769532356.2348278
916744668.1718025
933557350.0134323
329219045.3988264
399037287.9057557
292082476.1889247
653432644.7783852
454070729.2915174
251863179.0211874
472028005.4447883
891214930.7048817
647447053.5786977
705592350.3977499
239119873.448154
1026258452.805899
491295718.4341737
1009824684.267249
1310256006.239505
995506654.0306101
586260578.2144405
311061137.6919325
98097331.08409645
845968098.4389782
2247478467.478445
620670184.6894007
235392215.7417457
656720216.161189
412808520.4900729
273153429.7758173
297501614.2694532
903672286.0606024
812056017.3206803
1134561063.876565
546734311.6584779
809353332.6380407
327614748.1224621
2086518238.931729
896180381.5051196
701948678.9026889
960104308.9097211
466509901.8767107
864220794.7127457
2091134789.616038
317693594.478829
2464564124.557433
316545405.2285859
724393262.8228168
284492419.5697585
250822076.8601767
442682950.0409392
287416110.2651818
1042233299.505293
784646720.3523234
1362339253.91458
646454716.5180314
445959602.8313786
1511655539.249129
1802741491.621943
1282950971.638091
1135704859.258508
236631167.5718097
1443951624.50296
828571344.6952778
3750131082.774351
2320659371.459633
366575373.0768595
527047108.5333262
149859382.1860241
242833877.0080184
624835484.8641713
97504890.22889103
1832841565.226635
1025123978.604257
1062652252.081544
1891197284.386965
678292234.9212787
240022014.5731101
1984953883.24136
2269227711.402455
1144793213.950754
1683813997.84432
928442139.4322768
2177043724.196096
344786616.7962918
3192076966.303605
385174799.396203
475979836.7216922
82055594.47379141
288238282.2709733
909593989.9388362
441208228.3849269
2029232898.693398
920981545.4280211
1836005446.3401
358417071.0386265
2325519843.493395
561242099.140023
1037210114.82706
2474038929.105001
2682208830.073627
1038895656.939505
1197815545.888143
1104876174.443596
2045095064.600398
1115206555.827575
389643474.6877248
344795354.812211
481210601.9201463
611382292.1198308
834327226.6354315
738403278.2146485
681771310.6976418
1491899899.08588
194441972.5502356
775608892.9953066
1740596951.611366
1278682803.556128
473991939.7241959
1335352712.303061
2612470343.542994
2355336490.023674
1309571881.327158
691448312.4779071
927514242.0197899
1396752137.476067
465905158.9458874
296239087.4878732
617538304.3846568
983847520.4740971
830987529.0230734
752533732.1547872
860616004.5504801
769478740.2373999
95439444.43494819
2009841948.394905
1563136943.424526
1703812173.210845
693692278.8070059
824754728.2891788
1142236096.093088
2685342382.431928
1403741802.181226
1592728100.988376
1692896317.46223
902344278.208061
541933243.1972543
682853053.6179122
193049787.4891336
1398580502.386223
712859365.4242005
658736852.4501623
890481150.3044932
686804633.6433328
918995102.9095271
979302752.0904976
1647212746.375827
617720948.5979602
1358441769.542444
850899620.4347395
750995148.462832
555291950.6958574
2575020716.093935
261440201.9701724
1285101537.899328
1495851782.245656
762520235.7945625
617243449.6932741
659812550.6789095
1660734024.896485
727230532.2905972
589670103.9978093
801574977.1166364
1849821743.94252
690912606.8426809
1027942094.15762
1616999577.307179
585439038.209789
334630356.2568795
1672147435.715435
444286982.7166609
544518831.4337516
327964792.3574949
1939281312.54361
515129849.1916869
120639374.1209257
854987789.5922905
781211401.8054833
1152110017.840449
1759126177.378977
603367460.422755
538448758.5073901
1137871329.477927
1496542185.181864
360495960.424208
1222868162.559415
275176754.8038735
1685370137.295891
578660588.2925646
1974620449.908985
1800852664.587218
1166286739.284865
585086532.9001224
670865562.7454017
824514619.576728
594041325.5607085
896628522.9538336
852778503.6688688
1241417242.838211
1187320176.182883
727001845.8051362
1001487692.776423
1053923761.49477
1303088967.163821
992135688.0320084
747155510.0400842
1987753771.339269
562201727.4483193
2656024605.566473
1225882453.219601
2201491158.991424
1146082364.869981
2032305177.126953
832172171.2018243
816156471.5036398
845897492.9383289
864760120.886047
875986455.3777089
928258744.0758471
646359748.6788414
932379950.8678902
917210473.7867259
834553562.304402
807466055.9459689
1136853867.879289
1619603120.170648
2199153525.543998
343995216.4573426
912965744.4117008
700933794.7887647
3606502853.952053
1357649098.532795
267224152.1886382
2374119576.687934
1404897440.53012
955398345.0442648
601541568.8822428
795208966.8223956
588115947.6191719
642131375.9467697
797546090.8319485
798325626.0806949
782883504.0324671
727716034.6320789
913411628.2224302
1618257254.744225
1101651204.213906
779209726.9979632
1122172491.77156
2308168377.768688
1810429784.915985
3291679261.197959
1089899287.899616
1591656432.829861
1646906948.765006
767045087.6630477
448337036.8630068
751407327.0220156
700894722.3792385
411294074.4916246
262341533.2955116
281983286.32432
1792314265.08918
2537508728.813488
1453845481.652708
1837446304.24056
582177376.9867851
799032608.1146147
686670538.5390891
811933935.5203533
383264988.5130576
480144733.0844192
236909780.2257857
2856291061.978469
2360996055.574218
2153548724.787864
597930598.1694933
828395446.863246
669450806.2962383
745244621.4814293
668157713.4838539
272976688.2321516
346270526.7107126
1989926826.846895
2221410873.023919
910754546.2671509
631941124.0751382
877143176.4048467
705650546.7757158
723286970.1661078
887799265.142505
487853111.0245115
394874745.1540707
223297632.7387685
2808643783.214663
2143949491.238216
662286662.975932
926011796.3906311
697906491.078315
420013332.7115095
517149144.8310391
602399277.4788996
166902299.9860289
375791688.0896118
298711961.0771154
2461560090.219855
680999763.8588496
934806758.6746811
335698707.128521
157443308.9973542
252878178.3245392
395279320.8627813
162364755.5928999
169460277.3133691
506628106.8951026
917230996.4227194
704694822.128125
668669748.7896814
50190165.2478091
116115688.9604337
208462126.2142294
311460981.5850417
346132724.7326235
279572364.7533382
857842464.1471242
1015793679.26376
647242886.9383125
356381783.1979229
117069567.79443
99909653.88436744
171888065.4565089
265367480.933561
374435713.9887956
410634773.198323
657319072.3267452
616708847.4026963
323828657.3603714
168008508.8681684
140535999.2312929
96858144.92686769
81625015.43771854
238663173.7179285
358035996.006693
526100440.3484887
498162801.5181268
504587894.8749312
62869762.15148413
90386969.46451946
30664138.24458587
35481932.65231743
36127097.53605099
149573522.9804483
352257725.3459417
503621423.2875755
671120982.9184028
559926361.4876922
129891099.710431
133023055.7172901
113079068.4155498
107065791.343346
75746091.06174384
64027382.31425833
259772195.1946715
514991414.6485026
636059127.7692903
630828960.0318525
123136085.5699134
199588787.9760396
137511470.4390832
125614362.0865403
193685750.389373
146317966.164052
104635162.6267044
393305967.8827673
648104095.8422297
628113944.7274446
169362490.2676091
247901854.0167093
195762174.9891328
251704114.4094303
223359726.9137988
142067997.6281185
74727628.25414236
279903777.7205872
545654828.8841982
558126080.7844927
231611560.1529265
302329019.4372513
326772695.925535
264195204.6444792
172498971.8906305
163941627.15074
121379456.8457679
172386639.3649172
422497977.3345807
527652857.4502928
245679340.8170537
350246252.2676104
290899164.2375178
148661813.9317824
163925861.5430976
206851973.2419514
247925902.3470751
275016561.9474195
399441450.933945
571031940.889028
247631308.4604076
332537967.259153
174853719.0984031
139379102.7472475
164252556.9553652
211927280.494997
314755746.1358977
423891510.282774
517346562.9628583
670699948.9589576
257054481.3909437
263752418.1659105
132636472.949197
139334395.8368321
167333218.3072272
242003729.4217253
410535769.032375
497920368.286676
560901058.7993245
681568108.6812062
164104302.845592
182531337.7629746
144333614.4062226
163632918.042018
204812289.5628722
356187211.5251299
466286250.382843
538425199.6048634
571509801.2882506
642732823.1695844
158633602.0773133
196239773.5233178
196987296.436664
218180991.8384016
293038290.0987741
468474987.1729959
527437193.0088849
576018057.8532479
717988817.1969637
693494301.0507486
112251073.3916042
159145838.6633742
231433817.7828905
220565626.768156
301217313.8049455
396560429.5364599
398420347.6445089
460542329.331815
454503986.1262609
487493476.5801342
)
;

boundaryField
{
    left
    {
        type            symmetryPlane;
        value           nonuniform List<scalar> 
30
(
263433417.526524
417457188.1976042
414637948.8100962
442704147.3737284
474606358.155417
489117273.79362
512189819.8675133
542848639.9101592
306301248.5864288
48324413.75491948
103415339.9627724
7468333.734412898
95122956.82435329
174961521.3603837
190742088.8554537
185443725.8195311
198794987.9793904
122363786.6077237
121515738.0910006
105016006.3646545
6861001428.515115
7406269694.541735
986389469.5486605
1314667802.659086
20878380.50409679
655418322.2853388
537074036.1079956
422434900.5934834
461288318.2479272
190139607.7715132
)
;
    }
    right
    {
        type            calculated;
        value           nonuniform List<scalar> 
30
(
80788555.51752241
206327681.5980435
207403537.6346762
132743649.9342166
209475749.3092778
287436423.5008551
198112074.7309333
57000497.67882642
22722795.72777575
38215039.07715342
54048581.42651576
92282811.52983981
172863445.1852648
163629707.8278471
152919499.782646
239001697.7891728
388166790.5292953
577492925.2876379
2136892964.861121
973421975.9164852
3107956284.443112
165807671.7887447
1348537157.512767
855572263.7151308
1175423005.576643
112015915.1153116
210984281.5276378
595397248.6751939
757033931.9919453
765720705.2568777
)
;
    }
    down
    {
        type            symmetryPlane;
        value           nonuniform List<scalar> 
30
(
468147566.5253276
528524609.432554
28446608.88179263
39991847.90197006
3033456.781025769
106492874.2701919
73490936.71016009
37126741.50162794
136230806.6336779
345394879.3251949
473023285.6875434
442748179.0016879
175702707.1201541
58169377.4595934
69741757.59864049
70465149.48085602
82793661.00760922
49027601.66992775
234895134.696416
68653914.71556361
132179510.6955968
147911497.5638992
200074468.1290962
241556096.9512952
255154796.8176047
242080836.5375448
196225075.7552993
185462668.0469568
139392628.0955321
39929390.41358571
)
;
    }
    up
    {
        type            calculated;
        value           nonuniform List<scalar> 
30
(
39647779.98105079
158240505.0539379
225268961.1279141
202235454.3827841
273942707.5634518
338549987.1359348
311914994.4252406
368102199.5445006
103127978.3004596
354077477.0979285
486449696.3013903
706473174.75608
566864353.7197365
634599186.4249711
779022079.7592376
757804138.4785498
712583751.4024607
642560110.8965364
836772943.5850152
1603886867.144801
1028463936.152081
774453598.777422
1072195357.402919
1646655983.827262
1020810515.152193
3006259065.171603
777797159.9204999
1380870677.745295
1631055226.424246
45055254.3998728
)
;
    }
    hole
    {
        type            calculated;
        value           nonuniform List<scalar> 
20
(
3221703295.826077
3213605084.017217
1743650951.354477
1287684999.81608
986541080.5419649
426574795.6871626
162243569.5552572
165031041.0744509
8180789185.438053
8184313181.07034
1253669454.094476
1398624166.919895
243372303.8852229
631472902.4053823
1236525717.52327
2177258659.00415
1724655110.317087
350256436.7869062
736103539.4803627
4293622207.945325
)
;
    }
    frontAndBack
    {
        type            empty;
    }
}


// ************************************************************************* //
