/*--------------------------------*- C++ -*----------------------------------*\
| =========                 |                                                 |
| \\      /  F ield         | foam-extend: Open Source CFD                    |
|  \\    /   O peration     | Version:     4.1                                |
|   \\  /    A nd           | Web:         http://www.foam-extend.org         |
|    \\/     M anipulation  |                                                 |
\*---------------------------------------------------------------------------*/
FoamFile
{
    version     2.0;
    format      ascii;
    class       volSymmTensorField;
    location    "1";
    object      sigma;
}
// * * * * * * * * * * * * * * * * * * * * * * * * * * * * * * * * * * * * * //

dimensions      [1 -1 -2 0 0 0 0];

internalField   nonuniform List<symmTensor> 
1000
(
(87987.3909647543 -54184.56826117636 2151857347.575532 38097.68292558505 -412337146.5173197 37825.52217729703)
(114549.7290465891 -42067.85268027899 247799065.2404262 6148.38413676358 885843012.7354766 36209.43395237935)
(127533.3156019741 -33390.64127364809 -131151747.6109647 -8247.839327630245 -762415825.1844306 35785.64287472609)
(134643.1009943266 -27269.93413472591 78353590.28679106 -17910.46458846403 -298684350.7473857 35019.79092282297)
(138091.6688450921 -22612.53015017964 -22537704.37438116 -22638.098350701 276537320.4283321 34636.07114615299)
(139279.2336892412 -19115.1192506303 249985791.351307 -25280.30711796603 345152675.4542837 34199.67797191609)
(139280.1029872277 -16336.24309596738 488883257.0231651 -26211.61857450302 150148319.9447129 33920.54532177775)
(138391.5209730188 -14176.86312170144 427075106.2218907 -26290.49902636155 132505896.7269909 33630.30658349544)
(137365.5540300421 -12354.95020050343 409310524.6705943 -25721.97129535649 27459988.08574715 33493.07482329459)
(135404.6397672482 -10793.62869813179 515473308.1662241 -25100.8997711334 -298311774.1957498 33091.12199916438)
(117309.1169037988 -65114.44103084794 -1522300318.159229 44715.13382894466 1065892555.736205 48607.27522701493)
(136482.8616864564 -44787.83068830792 107455953.2462168 13272.03549020957 -804465604.4200032 44926.46914794244)
(144876.881308986 -31631.69816092338 397278640.8736215 -752.7440635688326 -670902486.9829595 43237.24117471023)
(148421.6997951358 -22951.60153981435 813615653.9712501 -10785.32028697356 -260290381.3541446 41290.91385838934)
(149355.9779367289 -16889.0468771654 621821130.1140357 -15871.2856231884 -495973813.9361261 40045.40770107647)
(148568.7721994598 -12692.74127064749 449578047.6975917 -19074.46081995349 -906792741.454618 38848.29342007331)
(147049.3792205149 -9622.672668025043 643669386.8351315 -20514.58501736046 -772877025.8548913 37960.43826651615)
(144962.3543796237 -7457.21085987281 958876204.7593392 -21195.79742484374 -392115131.4467908 37129.96708207052)
(142801.0149405287 -5756.418355791568 842156436.8585689 -20995.57370836497 -301280923.1882953 36541.63237509168)
(140151.338607398 -4543.11281514335 780019518.069489 -21138.50564219653 -255014466.2066714 35703.84989078777)
(149232.8616329013 -73081.16137663336 -1235426243.549554 47379.47184240482 -36937440.68130849 58983.70003940783)
(158743.7646197438 -45990.46202494393 -1139381068.699223 18980.5093187876 -1041786848.370354 53317.28218848573)
(161312.8830324974 -29202.42166504123 -651642135.4608659 6727.94061962772 -785521399.0964081 50412.24709585083)
(160612.1215573203 -18479.97020277812 95507722.87805039 -2837.732899814859 -538998365.3538465 47332.3166017346)
(158670.1113164039 -11334.23895955399 366727754.4781882 -7796.592066582481 -396911315.4156358 45262.05577678881)
(155731.4583438294 -6632.828143512883 288693787.5759254 -11280.42128723653 -199252926.0779499 43335.31111861445)
(152640.7281506355 -3392.584520666261 81840851.7802273 -13070.46078960585 90790324.46362275 41871.08020957522)
(149315.1800725705 -1261.171592211962 286087372.6979067 -14266.1023553332 247868495.7629563 40514.72331414658)
(146179.1253369509 278.8009738288725 -200640543.3827268 -14474.66379906004 598092840.3129987 39511.33846186437)
(142690.1178551411 1399.214739778356 -928517672.7695957 -15250.29481073235 456564999.954981 38231.94691351452)
(182427.2661856278 -77138.97367251883 371677347.1151108 46578.96249335453 -857837532.2364453 68701.86861823256)
(180613.5331753784 -45414.58910534762 -735230885.6126983 23299.42723324448 -1015341410.567739 61173.88811781428)
(176471.2490285909 -26216.81639180177 -1502533903.351906 13953.56607094957 -330675591.4940333 57127.44452678737)
(171070.2177592609 -14181.69317696477 -1681071091.860288 5543.233510016995 408489927.47799 52984.03537831355)
(166023.7410010091 -6389.246761666354 -1588105190.997649 1098.105963346126 764860783.3968403 50136.55409786687)
(160861.9523998226 -1425.017330131252 -1466503136.406984 -2441.019941259859 914622641.0673738 47526.27974146467)
(156189.6202925316 1849.832773798228 -1414885304.273139 -4481.661348479342 852886606.2673442 45512.38769056213)
(151708.2835472985 3904.000286797374 -819968064.8243665 -6115.217729032811 1610476832.167806 43677.91974078857)
(147668.5185865694 5261.698169035772 -30266875.8892531 -6784.170253951452 2426002392.776769 42265.30451371018)
(143576.1113160732 6255.35716422024 -202013647.9602784 -8064.652583772244 1193092107.139427 40653.4376179971)
(215322.9205053413 -76642.72719114611 496786784.2568566 43096.176397099 -282869705.8563594 77525.72907470405)
(201320.1877436102 -42906.52818946749 -481977457.419648 26369.66343782552 455954349.0675408 68306.95535713245)
(190034.8989390604 -22787.95326681024 -989572431.8821084 20711.18738939706 1171108274.88115 63223.82588656645)
(179761.7638271374 -10323.77463569843 -1308039701.211139 13956.01902293312 1216733433.832136 58115.33485635968)
(171560.8965831343 -2405.681433078713 -1467221275.89528 10314.726110774 1004075612.36945 54562.68680725327)
(164207.049150573 2529.083018932948 -1566012871.724381 6902.199144397135 951198868.776641 51332.77449606171)
(158029.8830596608 5680.172183343057 -1402099653.635477 4703.990883815968 812548148.5454375 48820.16218711258)
(152484.1114431533 7589.537396447739 -1302193353.666233 2694.795454600579 656607357.3501048 46553.67206611334)
(147676.7509584781 8744.202258393827 -604632008.1371508 1548.677839225078 80875819.52684695 44767.62864202057)
(143083.7815689605 9601.025599677301 93064778.94113384 -182.4100738429406 -230115223.5145061 42870.41144910304)
(246224.7526672972 -71317.86923139216 391495263.8465816 37904.67126686406 349632511.3222607 85238.82717064876)
(220080.6403704694 -38440.05298117414 -44403837.04519024 28389.34499151259 675637412.4210832 74540.99560942478)
(201733.9925412008 -19020.28900060549 -55191487.42379459 26767.31646732026 302618659.7477972 68550.39270276985)
(186732.0641415897 -7082.547522673935 -131663754.8177167 21927.96748174279 288624302.9375106 62598.00948828289)
(175511.4042354457 403.4377871616287 8762653.747181222 19247.74673966509 391452024.8280475 58427.74529421212)
(166107.9375153925 4999.117630979828 56026893.020819 16081.78507057761 245356072.1942556 54656.91677616771)
(158555.9935890062 7862.572402966691 17486637.98401101 13797.15360696865 -108748452.9905827 51705.9441595026)
(152072.9236848188 9554.178475142035 36010597.30599197 11481.8203922346 -202575375.2384408 49066.42322188617)
(146616.2546167953 10492.18567043021 36815368.51800232 9873.546371964279 -231260208.4306676 46946.9402958681)
(141632.1411734521 11201.04312162828 17614960.11248938 7767.433283739309 -68299363.51098248 44819.87233751134)
(273436.8961776859 -61297.08545658609 18925014.48652876 32065.72392209705 412190276.1362295 91650.78603122894)
(236141.279484158 -32128.96892573471 213839557.298385 29599.1796079718 529867953.1210768 79722.13772298198)
(211344.2654404084 -15009.54921225041 18644353.36947202 31909.81150016401 607096634.7498208 72976.22308401141)
(192077.8592835913 -4540.807486635947 -173198952.584287 28995.77360089392 555058309.5866128 66322.08986515513)
(178162.2530118514 1965.949244233875 -153988825.1062529 27297.70300355238 79866979.74361198 61637.98680545743)
(166960.1067375305 5919.174246718394 71552954.43659875 24432.24833768819 -94411342.77707754 57417.70652290685)
(158226.0992187769 8338.133683102606 70902439.22262602 22111.32284107111 -118114873.0135601 54101.22661848366)
(150954.3436882267 9741.860603867945 51328419.1975023 19555.28397278835 -125739815.2829513 51152.88829819169)
(144976.7060996546 10461.32026673277 18448406.34006468 17529.1527629322 -159405859.3657869 48751.75765945893)
(139686.745861861 11019.50901214155 31852235.71740622 15122.79748359134 -98052982.27381432 46442.86300423776)
(295401.581630963 -47114.72535577585 -26395868.9246284 26608.67160870529 355688235.9733136 96603.07596815858)
(248840.2495479499 -24216.65248552 94777353.41797301 30242.10558704341 662468594.2447426 83724.70653649863)
(218703.7633568203 -10832.33877918817 -20487507.35212604 35948.72466782305 673053973.5156329 76395.74641387885)
(195938.2095000592 -2675.049448189824 -91672122.16688627 34728.93748280814 308469079.0563273 69200.14409719738)
(179826.8567570427 2365.086172896197 -20274201.72121548 33903.6066852163 -69754844.01071975 64119.13903339678)
(167176.6210949179 5406.25156437758 27838020.98865326 31330.20618564104 -87317147.50574452 59552.04818486812)
(157504.3237610307 7243.469946703681 33278056.89421372 29003.35203282694 -107947675.8996112 55952.30273751217)
(149617.0957180992 8296.914371931409 52869240.69558017 26271.21985868836 -148834119.1233411 52766.49467334246)
(143247.3076653185 8802.892864828082 68692465.27133192 23900.20628640535 -200156699.8552912 50144.25418582716)
(137732.6517620963 9206.574747701659 84160182.96459979 21270.84796344212 80058812.72841337 47701.04991747973)
(310815.4217654289 -29672.97863179365 4754487991.931658 22416.45309077369 -14036266.85383237 99969.56247498377)
(257619.7405452641 -15072.25382724437 14437886.5584516 30526.01601657215 643590251.0948455 86443.72696742413)
(223667.9182366818 -6553.378652856194 374370288.7101225 38723.30158952546 693812799.4273244 78717.36594580862)
(198415.8702760652 -1370.130372471492 46103740.22302204 38759.33474221708 342441909.1183912 71152.56150559285)
(180751.6607909814 1821.230352778579 -192762493.283855 38584.80734505364 -169073600.2895814 65800.9404416935)
(167085.6815114333 3739.158417235001 -52995465.48137509 36239.76125376851 -143974177.8559768 60997.63282951429)
(156762.1578256016 4888.62040933001 64711059.58579534 33919.60633476527 -157251878.7559685 57204.52924852631)
(148452.4304238828 5543.044201370248 96207183.50800945 31071.97916903397 -203051491.8588982 53857.3228796013)
(141821.6028841129 5843.733033451959 124566125.7920641 28454.57126808301 -181046838.8765478 51082.85224381227)
(136158.966161237 6089.109407897701 162681840.2208157 25676.05941170305 91302451.22851953 48550.50767084237)
(318745.4697956225 -10140.41181505869 4884505466.691957 20178.06813176292 3961201018.657297 101677.0614121714)
(262120.4078487655 -5127.936556958809 130933991.1606061 30701.81850390359 4276011800.135402 87846.66793820272)
(226191.6291326182 -2201.43643901459 287322792.0357041 40259.4125303319 569492217.3505534 79935.3124888318)
(199651.5430852475 -420.5469475442517 127363667.165465 40986.94128666651 759023805.1056881 72191.54531156369)
(181183.9322901134 674.8615922526355 -148239174.8839308 41174.30622117124 -12053907.97936304 66707.47155533983)
(166993.8836605554 1332.459706021993 -65115912.11172866 38960.24361776036 -378405938.6409364 61786.23818611777)
(156335.8866876595 1725.343754865441 39738127.94011526 36648.84629859505 -310079832.7462717 57895.4198986201)
(147810.1761597933 1948.539764114421 60795899.88071742 33742.36456643808 -243892896.0031254 54465.76221959967)
(141048.2766328822 2049.146855316651 69232549.25099781 30994.41118997843 -266324928.2888376 51612.80634083999)
(135312.7506830209 2132.226133059891 119679003.0566978 28134.52276327211 -109777139.0280099 49034.18203422993)
(-8082.857045950052 2663.361247488808 -270285117.6818768 -116997.8724518944 -734984979.5949767 -37524.2188518445)
(-4959.804558136286 -1190.76686354041 -305143823.2438059 -77202.60013454303 -247865882.0280492 -24648.72140780379)
(-1158.015211132059 -3155.257352550413 16423635.80082973 -52818.20616612183 -104237199.0230008 -16192.86641398547)
(7202.649806042216 -4205.490333537246 23089293.71647957 -36187.54496633518 -41927603.60825467 -8695.46854782521)
(15105.94098835532 -4695.300543046597 -1751250.30153384 -25276.38137864651 -8008941.639433146 -3051.132117136377)
(23516.11844282608 -4867.408408115994 -61483686.2096213 -17456.86109610115 18491475.94215081 1817.777203950442)
(31159.35650645808 -4854.631680378471 -42430006.55945207 -11950.93272648342 38113445.62995138 5762.52713413507)
(38436.56162059002 -4743.170055578264 21435121.45787324 -7768.281302262481 14976234.60186121 9200.484095385003)
(44900.93402230364 -4553.687108765091 78652888.84081361 -4660.821864971516 9771515.205277897 12072.03364740645)
(50961.22222306031 -4415.632095532599 199413824.7188754 -1966.602072786776 9931296.231827255 14698.38604567467)
(-7896.706753734914 7406.6467504143 133309461.2488911 -111344.3212640944 -797354012.6189578 -35772.30840544993)
(-2732.725197142598 -3736.284251539246 200971990.4917659 -74627.1002879264 -284806974.3707922 -23207.94764480057)
(2150.838397096566 -9384.814086453222 123616669.0828901 -51929.11887927791 296971441.7479379 -14933.48414501895)
(10961.71877603566 -12384.47442507216 32129631.10126733 -36365.63046894727 504607062.4827718 -7621.173506121263)
(19027.7305854129 -13771.11627033761 21552902.49100275 -26072.99378261647 297350172.6460261 -2113.578959355138)
(27402.56354782752 -14242.89672346106 -8342420.685981497 -18628.13521247973 64884631.19492603 2632.328500374515)
(34913.75317586345 -14185.3975874998 -57982411.72720436 -13331.18595141115 92530922.71244474 6474.77016682851)
(42014.39393653923 -13844.28301952484 -27404585.7845852 -9261.415365323834 56117666.37048343 9825.893571362916)
(48242.01293138186 -13282.73200660214 59347507.21084843 -6193.844440984951 37753054.33002888 12614.45054721248)
(54146.02823230268 -12870.01131896801 200911695.6486043 -3506.364969546332 33863298.13159406 15191.89897880507)
(-7444.839447976399 10575.45662209326 93851230.80771989 -100426.6700013476 -124595542.7607462 -32361.45283481582)
(1476.812296556502 -6625.996933835834 399099116.6086679 -69678.23702863346 963925449.6349357 -20460.42741962309)
(8246.421466623338 -15294.95637755633 477034789.5564628 -50225.05569066825 1620532191.823717 -12593.59027730275)
(17843.2748332042 -19862.21303367963 -193445856.3196711 -36704.93926612291 1322881286.145837 -5658.499324413203)
(26169.55108821785 -21941.52396317678 -697554072.3962281 -27594.86257348207 1084317482.824448 -427.5934464765464)
(34455.89928305206 -22610.90150250743 -510441001.3387078 -20866.85827945868 1006039774.311635 4076.712302014296)
(41706.38317288113 -22470.34789564796 -267983111.899917 -15970.58203083581 971462042.0179213 7720.740344659659)
(48470.2936248245 -21892.32351360962 -106480916.3610143 -12117.87965693823 197172322.261449 10905.72418940258)
(54251.14334720553 -20987.58152847313 -3744763.1673264 -9130.152896409139 99400823.02607675 13536.29713529168)
(59868.16797686231 -20309.77562740246 132905490.0339768 -6460.165322406958 46150251.03394956 16022.40079608295)
(-6060.344756087881 11369.60567215702 808964359.6365535 -85066.03710603292 606956187.9585121 -27337.9145557388)
(7895.84617803463 -9979.63289533946 1325537606.904849 -62600.69427316533 1834454361.557045 -16411.45442939824)
(17165.37506892018 -20646.39112367988 629876698.3911669 -47641.13881105006 955553772.010242 -9142.729123488862)
(27763.81737799164 -26206.82469297783 -80003740.42222966 -36967.24057778686 483742850.8545709 -2761.026959860086)
(36387.98390083277 -28670.00750841832 -136765392.296821 -29507.65306709292 568566994.1127646 2064.099250830748)
(44500.91116656248 -29385.52490767739 -193385935.6777763 -23788.80023899614 654492849.8694286 6213.633282302983)
(51353.54527571441 -29106.24635734937 -1146394642.924428 -19463.50397141905 301567674.5964282 9567.012398884081)
(57617.02908020804 -28283.12808025798 -1302215023.071934 -15925.09362430844 245325965.2098635 12507.5806386805)
(62761.10101882491 -27081.66887855089 -366314829.9127111 -13064.99604782636 515036745.1897208 14908.83149068478)
(67952.67499552341 -26156.57448495047 -74137309.19349577 -10427.39012331127 265032950.7933471 17257.58546091095)
(-3034.754521826242 9209.33220452316 730161661.4909413 -66439.20647849164 1030313634.867755 -20842.18830207948)
(16572.39034370051 -13888.56410209728 1009758376.024435 -53823.98728893349 406821117.9712241 -11175.47908647544)
(28608.88647666014 -25267.1976563716 321095189.1351082 -44212.54444850277 -691920500.0097027 -4681.097393898297)
(40235.73033631275 -31096.57125007201 244020711.1892448 -36952.9859001457 -629376102.1251594 984.8233318173864)
(49099.18211348479 -33556.71792025393 131710791.8753585 -31480.95789186079 -736974874.8848959 5285.467267034525)
(56912.86760875099 -34130.32915422196 126542856.4629112 -26991.49200689654 -775236753.3661903 8976.412678742716)
(63225.70541755157 -33644.32173268709 198493896.2655006 -23372.09914706333 -703929127.1101128 11956.08188299925)
(68831.54226612618 -32570.00727768446 -20558341.35024206 -20231.62674075575 198363697.2692225 14579.97465793652)
(73186.28948093785 -31129.84583664865 -451865098.9049921 -17550.01718440274 265929195.9344369 16690.88168963009)
(77814.88178323221 -29985.18539570673 -799349978.3543184 -14966.14194224732 219244960.4385653 18854.6219542448)
(2443.440777540194 3861.557084771056 -184169982.9787191 -45909.24780265091 1299284986.039478 -13039.74210325523)
(27554.64178536554 -18346.39144876192 768421986.2892605 -43829.44025575808 -654869736.1533821 -4882.43952674466)
(42219.09170056992 -29023.84204107705 412293079.8573639 -39937.78322393096 -736408817.6999116 684.392534148328)
(54682.75011782791 -34327.81993182693 256629416.7262803 -36378.19303056088 -746644592.4390776 5491.36712641849)
(63616.1026666945 -36361.93055917448 142287853.513383 -33073.27939918867 -896971612.7547168 9162.846987588404)
(70957.67318560906 -36590.70965381688 204561397.9408367 -29948.49832540816 -843832581.1697766 12302.75246109801)
(76582.23091100255 -35825.2231957775 345074616.1287152 -27132.33906610728 -457768914.4769532 14834.96755781967)
(81381.7141848864 -34498.04099518585 434657654.55897 -24459.39471312286 -111703506.1777925 17076.69584117626)
(84834.33730362884 -32879.82116913862 325072594.5670779 -22018.48807484981 -16072779.0286625 18844.75476731577)
(88768.0823947601 -31551.95445451986 59527531.47962775 -19521.20191099774 266091075.7516581 20774.06414681144)
(11169.09380638293 -4535.221028081419 -1174945579.647791 -24939.73151604296 483241001.6805429 -4131.191301511565)
(40852.09958203207 -23250.04662505589 -338150503.5222925 -33162.92065382926 -1064884212.898751 2306.753685097641)
(57586.89731140812 -31833.35177167643 255096386.9637339 -34860.56292174479 -376900002.966985 6817.900319975778)
(70473.21478603109 -35831.12510371393 120533679.6538602 -34987.57084975016 -566060450.3649266 10645.69318507712)
(79196.78575500459 -37026.67242354125 126965254.6247913 -33858.18129568486 -924454792.6453084 13601.58133524128)
(85849.51194193491 -36718.3255456636 424631685.4826981 -32140.79743529704 -534401303.748515 16112.6143502019)
(90637.64823089232 -35607.81748485436 910515286.7223852 -30173.77422068657 -388941708.1541308 18139.16219940977)
(94495.07841043665 -34036.62298873979 658192881.6354246 -28027.22218943815 -68988240.45753781 19940.35686977836)
(96983.66424917651 -32301.92535227992 499033013.9688358 -25882.63107118694 -154567057.5894929 21330.30995634135)
(100096.2068561948 -30830.19659661692 216303165.2682347 -23532.8813370565 14780694.35464782 22968.997655004)
(23808.5751736101 -15477.16789551117 -798866964.4342763 -4944.692270053611 -776995823.5116428 5659.164878620034)
(56402.59033702381 -28394.6224377413 -1055804863.00252 -22365.17075217114 -17420497.71559786 10211.22588446597)
(74257.64895117491 -33655.18258466442 1153590065.937505 -29042.26440466488 -1303635351.816077 13564.61538296121)
(86943.0016171731 -35661.05935049026 -266071182.0916482 -32554.440642893 -713482247.5569372 16316.56828973933)
(95067.29393749194 -35659.41950683257 -406697841.5334141 -33448.21374238079 -313572144.6384758 18485.7240535577)
(100769.4646795251 -34651.7674820538 -291282699.1667826 -33088.0782451675 37377866.44069559 20304.41593078368)
(104561.9364940461 -33145.19645709966 302411847.5935408 -31982.01632315676 224885148.4526515 21773.97604814966)
(107354.1573619083 -31350.13277320608 798827804.5013825 -30395.43376116357 250832951.803927 23087.61707269718)
(108851.5307954059 -29553.17507910563 770747593.8304213 -28643.62498666229 -134034.3006587841 24062.37174835313)
(111024.3641385642 -27973.66476360935 601179982.6934295 -26498.94469337009 244518980.0757799 25357.62583822822)
(40803.0445242391 -28137.65768247841 149581844.3465447 12823.6389877422 -423248840.324473 16088.00505449604)
(74065.83989384507 -33488.41238930704 -899416302.1822801 -11942.76020275232 -2431864571.943878 18636.92389408317)
(91785.32860709511 -34491.6646750308 -88985246.10210986 -22575.65170396336 -1537098351.767867 20762.9030644029)
(103494.7734348013 -33991.5422147879 1749968683.43438 -28919.62811196773 207220982.5365072 22372.54359418341)
(110566.5516223249 -32531.20238396063 793379927.784988 -31529.58807465558 -319414529.5196768 23711.08906593268)
(115042.2390105978 -30722.46602646869 618525514.328853 -32395.50474954131 -393601507.4033345 24794.02028013024)
(117704.365858018 -28797.72086810958 318118214.4099816 -32084.64290637507 -250216219.3754308 25685.91688711673)
(119323.0416523529 -26837.22378727803 423263185.7159204 -31107.95598084992 -662680199.462809 26464.52570177554)
(119879.8049452795 -25032.9751249579 709475382.2707614 -29759.17900693971 -261742592.9837807 27036.18777876981)
(120951.7907286957 -23401.1166523516 -806864444.2507837 -28074.55497964458 -845443024.1678146 27863.17071409513)
(62274.5113945717 -41446.4507787295 291463724.7110037 27383.13346417444 -3106372744.822098 26897.29342604724)
(93570.03248529919 -38177.75546368674 -820406345.4263738 -2329.292599165427 -1716752878.666037 27372.22196539691)
(109681.6734371478 -34384.67428829689 -390746123.838765 -15593.49521308787 1037970313.082487 28226.45347484068)
(119527.6492419617 -31090.62538984306 -13656428.28508466 -24025.16971819479 -532821182.1437368 28650.74385251354)
(125018.9049223926 -28036.14744214485 102075580.1047303 -27940.45171449376 -717666850.035087 29123.53595817232)
(127956.4436352757 -25378.80083573794 396550947.3056477 -29816.72096624384 -324007840.2721106 29441.9168008125)
(129291.9889058992 -23041.77660187912 346271917.7091357 -30222.48660377086 -187536536.559267 29720.85068926717)
(129629.6341925652 -20958.65745608275 375745901.4321682 -29779.76106922541 84019808.20490359 29954.96193930471)
(129224.8163155931 -19239.46793011068 600639878.5201769 -29004.82891298077 516439855.1312424 30065.99622422528)
(129005.5994567017 -17612.48823644982 191656693.5638162 -27521.74274081272 78875769.18073781 30445.15701361827)
(56295.25936074203 -4079.489815835032 273100119.7874507 -190.3640884940105 19136970.03147842 16831.46858166851)
(61146.9774116382 -3648.237039571786 255620778.5007724 1737.558652363874 22606993.00007014 18865.36081850553)
(65503.81465061745 -3304.771080853655 101442000.1819778 3354.183146976629 27467601.84392259 20657.39933885947)
(69510.54297889309 -2988.162124644396 -33584089.09548342 4893.979252676789 21990647.95781439 22321.35666928019)
(73136.55837816891 -2706.122227106387 -40265407.64061022 6376.693119279727 22078131.30170768 23853.97544915106)
(76455.68040063548 -2456.3365951887 -40683057.39244816 7843.602492320853 25432777.65062378 25289.78486808727)
(79485.04291598113 -2231.7018633561 -47800928.50195568 9337.40239868061 729284.0594212443 26646.73359459735)
(82258.19217978383 -2030.986885003302 28306074.47919688 10878.83627715184 33750303.06300662 27941.10853703592)
(84798.17371784018 -1848.804328601912 135616763.9650593 12499.63491950179 52333147.1283384 29189.34259178801)
(87124.92123599659 -1682.663981591702 39637337.65301646 14220.62425699365 66176203.65182561 30403.66364904448)
(89253.14734293734 -1528.662646100205 -76313866.33928761 16067.76012361341 88188092.65310851 31596.27224528339)
(91198.10358735843 -1383.810957896281 -85396734.17429034 18066.81292094471 92478614.30296253 32779.47495203626)
(92959.11577908529 -1244.794774687548 -115513041.5707534 20242.52966771101 101119160.599082 33960.49362870118)
(94556.92690972792 -1108.269826724692 -139462472.3060559 22632.35366615029 107331554.3352603 35156.78417717145)
(95956.21727460774 -970.9864956815495 -147313685.7215216 25257.36207283644 112030020.9347687 36364.07380515704)
(97218.4323423529 -828.7684928929392 -139765431.12839 28185.52008862147 116702162.1176047 37621.18572756216)
(98201.32038297452 -678.3542541920783 -113290594.3984135 31410.43049283572 110133899.754851 38883.52526229851)
(99142.36682617635 -512.7217083228367 -107076915.4105223 35091.91220561341 103212709.7021417 40270.28370917952)
(99518.95738936917 -332.8604998592111 -80478364.09206581 39098.39592770467 98258307.56561485 41585.20599447225)
(100275.8554478511 -108.3173594527931 -23053221.0477123 43877.6638686131 46643282.84503299 43246.05579482474)
(59096.60406388821 -11890.73138568659 289201653.6699755 -1637.058679760004 22768891.77696578 17237.86361481851)
(63449.00935592357 -10654.72177476096 278654724.2842452 446.885539212868 29377771.26494798 19168.7684669516)
(67453.33310317103 -9666.090923209707 117204951.3555479 2219.963146985265 33800666.80509738 20901.98887469675)
(71130.82485341166 -8755.15896493987 -33485321.00683092 3878.012193622395 24965559.94464748 22502.65111407202)
(74498.88586869097 -7940.131717978139 -33987887.61099843 5477.085857169121 29920553.05382864 23992.79151763337)
(77589.87179147759 -7217.781997606467 -71720364.40458895 7035.023043710316 30959066.67901056 25387.46845044905)
(80433.03955613557 -6565.897987107951 -38452785.84097514 8610.6939991699 12018960.56601258 26713.12006677908)
(83044.42600973937 -5982.534827768747 99705712.78596386 10217.76659001935 51396062.30486797 27978.65778032922)
(85448.90707587775 -5451.563510350065 184337454.1065412 11893.93320340909 62666560.02104951 29202.85208466164)
(87658.53185820149 -4966.488241941752 101096194.1885177 13658.60865360641 73565799.60944119 30395.14215620808)
(89686.94998468492 -4515.786658512443 -31989739.17877886 15539.96828628134 148540107.6366805 31568.07547908246)
(91545.61401783058 -4091.049659915409 -64181528.27203216 17563.70439319557 156507903.1068332 32732.79552741731)
(93232.4766133493 -3682.58012571716 -91269374.99026054 19755.34981473119 169918990.6776272 33896.34792528715)
(94766.23343464077 -3280.64426983637 -121780264.9003056 22152.24581692038 194740552.8999878 35075.54377577596)
(96110.79570913161 -2875.741623635292 -132688117.4831895 24775.53760444609 207702168.9634731 36265.89999790386)
(97326.19281191028 -2455.551678502296 -141919088.0798104 27692.51993409797 206092523.3736792 37505.61382088434)
(98270.73823730634 -2010.505435248606 -132318972.568292 30896.43005664376 192887794.5348697 38750.15048779982)
(99179.8598408291 -1519.76228519043 -123686241.0228872 34545.15561746371 183427948.2694134 40117.5046378405)
(99535.37428981077 -986.5697775062321 -160179092.6435974 38506.44772546539 171379836.1367068 41412.54660522255)
(100274.5016537455 -320.997196621907 -96071645.15301897 43222.74954604292 119123337.9690814 43049.17535817533)
(64093.50805235375 -18798.89205792842 248484626.955108 -4427.545980815954 74786.0400190833 17899.78862126433)
(67543.76455949376 -16933.38296492807 300598565.4684393 -2054.481066539054 -3634271.545915191 19646.78504699561)
(70912.16389090879 -15412.02660113731 145314661.5246819 21.88362487556151 -13279519.87236632 21280.21425529544)
(73996.67146466106 -14012.33751085107 -15221042.33002006 1904.339870151856 -8002410.867399583 22770.30340038355)
(76904.19772675195 -12742.54403649378 -25753941.33992489 3728.901381215637 -1107184.549980636 24189.92973253985)
(79586.05202873517 -11614.94880363336 -66215921.15249178 5462.517694420927 -928135.1481289859 25514.57091667326)
(82097.29435510305 -10588.96275618891 -37300718.350664 7197.171390628773 4899269.799898708 26788.33972355123)
(84419.42136879891 -9667.614384247465 78967342.41522279 8932.01319041627 13141184.33166362 28005.43036766491)
(86582.36602837445 -8824.639527015186 167396648.6463354 10716.01339931416 -20929873.58822816 29189.51382817013)
(88583.00622421567 -8051.701790293742 185749759.8998518 12566.00670924324 -17396354.73629146 30344.70387909744)
(90433.76267848299 -7330.825225514386 61504117.28215599 14514.0840367388 42695319.01696973 31484.35401362409)
(92138.97728091912 -6649.233022751714 -48988701.80834889 16586.011762535 91075069.39566095 32617.49671418746)
(93694.48272599318 -5991.702356632159 -55849047.83772369 18808.62837624441 100782947.0974361 33750.933330059)
(95115.21031061144 -5342.79407326471 -81880751.01398137 21219.20631567602 114039359.9668375 34900.32498623649)
(96363.99979990444 -4687.330801452453 -129503184.4634074 23838.93608015674 120613694.5927702 36060.88076746549)
(97498.20388397826 -4005.318754988555 -160643250.0881535 26733.83558529344 127750172.1139773 37269.61184039429)
(98377.76284269526 -3281.396081515009 -146430480.0896258 29896.49522991791 129117823.8129266 38482.27742312205)
(99233.54123121337 -2481.424758889523 -137771657.6750598 33481.03365341071 116745481.8501566 39814.37246405071)
(99557.37418885638 -1611.021718614016 -171292131.5064805 37354.73209163569 119355979.4027403 41073.63188439381)
(100268.1241736874 -524.7788371327811 -97109755.0361602 41949.62517371042 119744483.6325716 42665.32480365594)
(71188.33570554687 -24287.18212541084 154243282.766562 -8190.744444908389 39900259.81060369 18899.27737831022)