/*--------------------------------*- C++ -*----------------------------------*\
| =========                 |                                                 |
| \\      /  F ield         | foam-extend: Open Source CFD                    |
|  \\    /   O peration     | Version:     4.1                                |
|   \\  /    A nd           | Web:         http://www.foam-extend.org         |
|    \\/     M anipulation  |                                                 |
\*---------------------------------------------------------------------------*/
FoamFile
{
    version     2.0;
    format      ascii;
    class       volScalarField;
    location    "1";
    object      sigmaHyd;
}
// * * * * * * * * * * * * * * * * * * * * * * * * * * * * * * * * * * * * * //

dimensions      [1 -1 -2 0 0 0 0];

internalField   nonuniform List<scalar> 
1000
(
-54636.86535587879
-52302.51571191069
-51690.37304968996
-50584.14244289517
-50029.88054684801
-49399.53484773043
-48996.34324483416
-48577.1095100509
-48378.88585266006
-47798.28733175973
-70210.50865325281
-64893.78877486945
-62453.79280670913
-59642.43112218387
-57843.36667153898
-56114.20159985987
-54831.74415655685
-53632.17467895013
-52782.35786908512
-51572.22761866308
-85198.67783823797
-77013.85204233903
-72817.69024932533
-68368.90175308
-65378.52500887008
-62595.44939173578
-60480.44919020162
-58521.26701046129
-57071.93333325173
-55223.92331930776
-99236.03243240496
-88362.28284214572
-82517.41987544262
-76532.49554919715
-72419.4670207407
-68649.07073334245
-65740.11554487146
-63090.32851968476
-61049.88428210939
-58721.63211676602
-111981.6086590481
-98665.6021795227
-91323.30407167463
-83944.37256881005
-78812.76983372051
-74147.34093034394
-70518.01204352979
-67244.19298795574
-64664.3524799079
-61923.92764807353
-123122.75036827
-107670.3269904689
-99017.23390376364
-90419.34703720512
-84395.63208977431
-78948.87978737926
-74686.36378515915
-70873.72243297983
-67812.24709487587
-64739.81559823423
-132384.4687103373
-115154.1989383706
-105410.1000081946
-95798.57424988013
-89032.64760695373
-82936.68719937517
-78146.21622611057
-73887.50531973559
-70419.20550734857
-67084.13544989668
-139537.776402609
-120935.6872238307
-110349.4114795074
-99955.76369335489
-92616.53415855193
-86019.62515514235
-80819.99284378994
-76218.27008337669
-72430.58937918367
-68901.51654767271
-144400.4791103954
-124863.1611764201
-113702.8619240053
-102775.922174625
-95045.80285924286
-88107.69186490536
-82628.76446963105
-77793.91082417268
-73786.34213200271
-70128.5110812608
-146866.8664465189
-126889.6314302906
-115462.118050594
-104276.6765611592
-96355.23668887482
-89246.78848814449
-83626.71762829156
-78672.76764861034
-74551.83138790022
-70827.15182684099
54201.6494498963
35603.70870016103
23389.69593041312
12560.12123603939
4407.190835809191
-2625.678183558458
-8323.65030470324
-13289.58813790418
-17437.38193491286
-21231.00206531607
51671.11214109306
33522.59104328985
21570.58820906677
11008.36173301096
3052.947385519569
-3802.252278574102
-9352.4457970936
-14192.95738085944
-18220.87301253646
-21943.85408052047
46744.32076137994
29553.95071723335
18190.74150044922
8173.387919110639
617.6349772469223
-5888.58443520256
-11152.18049556833
-15752.71271909628
-19552.42919536269
-23143.4678168461
39488.0988059532
23705.43417484298
13206.16428853958
3988.150053218435
-2981.476694856868
-8975.248069956442
-13819.01790105981
-18066.50536486004
-21534.97882056111
-24927.62344437436
30105.38310079912
16142.35867723614
6761.58512191364
-1422.522589328145
-7634.563829552842
-12965.92942686572
-17269.89605116249
-21059.96339443565
-24109.05132872174
-27234.45393174323
18835.18304278865
7052.412665712396
-988.5670035957633
-7931.974737895176
-13235.22341836474
-17770.64244043297
-21428.28646757165
-24666.3384376466
-27220.2013320316
-30006.9815435246
5967.276337057197
-3331.977537766816
-9848.078236546373
-15377.11237378602
-19646.728598187
-23273.77628561325
-26201.01206987184
-28802.73769692562
-30810.44771144364
-33177.44105804743
-8174.349260725508
-14749.54848977288
-19593.33330982374
-23568.37642133981
-26701.60141622294
-29328.60078838042
-31451.29873967967
-33348.78022448063
-34756.75918569891
-36627.68176114078
-23238.22952215911
-26920.00119505864
-29990.85998917821
-32315.89630567232
-34249.35087120067
-35813.58484706223
-37101.87994625323
-38226.53712442617
-39052.27123903652
-40246.80215438209
-38851.64609493112
-39537.65395051022
-40771.54389963352
-41384.40779209349
-42067.32972202372
-42527.21315661477
-42930.11766379851
-43268.27835421485
-43428.66120894586
-43976.33790983575
-24312.12128463884
-27249.96562750254
-29838.46571215118
-32241.95963361669
-34455.74231553323
-36529.6892536812
-38489.72630308636
-40359.37899799052
-42162.38374304333
-43916.4030473449
-45639.05990394471
-47348.1304867798
-49054.04635849916
-50782.02158434987
-52525.88438420041
-54341.71271951218
-56165.09204603625
-58168.18758032309
-60067.51977051536
-62466.52503709632
-24899.13633298224
-27688.22112069601
-30191.76170828435
-32503.82938703535
-34656.25441449782
-36670.78776187899
-38585.61787402818
-40413.61679336264
-42181.89745464949
-43904.09422267199
-45598.33125001624
-47280.70464614782
-48961.39145112254
-50664.6743424457
-52384.07777049384
-54174.77552229753
-55972.43959391664
-57947.5066987111
-59818.12287349956
-62182.14218598791
-25855.25023093404
-28378.68951331677
-30738.0872570266
-32890.43824506549
-34941.00961350248
-36854.38021327645
-38694.26848976101
-40452.28830896003
-42162.63108528624
-43831.23893751878
-45477.40024294863
-47114.16191921385
-48751.34814409886
-50411.58053750798
-52087.93888250888
-53833.88376988866
-55585.51183191173
-57509.64911622493
-59328.57938829529
-61627.69138368459
-27298.95621298289
-29410.22940294341
-31565.58789873846
-33474.85310850855
-35375.41746497783
-37136.82200367642
-38864.90904572664
-40518.76698596437
-42143.00764034961
-43732.63035423689
-45308.12523819999
-46878.31348873443
-48452.15958810736
-50049.89757657365
-51663.78033121952
-53344.68859387758
-55029.34074700817
-56879.02025148212
-58622.4920142694
-60826.11307616545
-29200.13596843106
-30756.6844652879
-32666.82817714442
-34259.4310818221
-35970.77895713075
-37538.15095695762
-39123.06216673793
-40644.1847132601
-42157.39653307167
-43645.35942286153
-45128.97657689892
-46612.43648649129
-48103.28497754243
-49618.94148667188
-51150.59196653848
-52745.73319033663
-54342.07214751764
-56093.21422167531
-57737.0651030776
-59813.68382587357
-31529.49472476284
-32384.47101713425
-34009.6737809082
-35213.56431186059
-36689.97242470864
-38022.27544735261
-39429.32397524546
-40790.93162062649
-42169.65401915106
-43537.57043313191
-44913.16864631551
-46296.1859283964
-47691.31329917536
-49112.67502226008
-50549.70350094247
-52045.6271418149
-53539.24474589029
-55174.36144148135
-56700.36817073628
-58624.05544194905
-34263.61484437715
-34310.12860428201
-35626.19605989737
-36408.83410464379
-37614.26950683696
-38692.6156539263
-39894.6669007545
-41077.82154676342
-42299.72269656084
-43527.61715437323
-44774.36563210826
-46036.75874751711
-47315.9875618219
-48622.98963763761
-49945.3832831006
-51321.41549896167
-52691.54994536092
-54187.40501393681
-55573.12177698121
-57314.38571579054
-37265.47348156016
-36419.69651471845
-37332.50853873154
-37673.59135640632
-38538.10659531951
-39340.22281612507
-40302.7615391252
-41292.93739217149
-42346.12420986137
-43430.49996948552
-44548.20451225527
-45692.81441345163
-46860.01333905585
-48056.64528199677
-49267.61245684863
-50525.30562365702
-51771.78518137868
-53124.87890528523
-54364.85562393077
-55911.55481845358
-40586.92075833204
-38989.80222319171
-39393.15211866669
-39373.13824211923
-39859.51937290097
-40394.70566921216
-41096.64758815696
-41872.31176222036
-42726.54612538509
-43633.59976252021
-44586.67107274767
-45577.62450173018
-46598.04300013542
-47650.93561407722
-48719.01000363835
-49828.01274475001
-50922.37097080996
-52103.35206879739
-53171.81638898972
-54493.52783752455
-43368.59777706498
-41552.32467834499
-41081.22498479811
-40699.08690111204
-40699.93085196028
-40918.65779427584
-41342.59170011789
-41912.14546727946
-42599.69623668544
-43373.9452978972
-44214.88975597111
-45107.06764089478
-46035.09326330776
-46996.10636979962
-47969.32907495223
-48973.42962903113
-49954.95526438699
-50998.89694892444
-51928.96500265478
-53059.27446188656
-46033.67423155309
-44615.6398723632
-43457.43511876268
-42755.58356908958
-42415.98346128551
-42339.44283648156
-42492.66636898291
-42815.3729007631
-43277.77946213901
-43845.98030927054
-44497.17989141702
-45212.50663914336
-45973.63123946077
-46773.11352949121
-47588.47737406976
-48430.43027237382
-49248.79351687528
-50108.12611848809
-50852.25447801052
-51738.02078138691
-47143.93687901892
-45765.2434608413
-44676.19154291834
-43958.47212216035
-43551.06187032663
-43380.05314302198
-43414.41759273469
-43606.35770241143
-43929.61637812859
-44354.41613076132
-44859.59777065881
-45426.52614278497
-46037.10773776445
-46681.59275806991
-47338.27430317482
-48011.88725003032
-48657.68772437919
-49324.56142011628
-49879.29791551623
-50530.61112858968
-48265.56914128525
-46814.2038905075
-45728.19571986945
-44919.15164877436
-44414.12247144864
-44125.71551052237
-44039.69450804238
-44107.43332417708
-44306.68310170766
-44607.59923185034
-44989.72116612046
-45433.56877343592
-45920.85665105705
-46439.76754072926
-46968.99995154296
-47508.33112673862
-48017.59228975978
-48531.12344591824
-48937.40204914027
-49397.7723801558
-48888.01284663398
-47459.88340760199
-46453.21016464887
-45637.46520875044
-45105.50694482214
-44757.63619409277
-44595.94717939604
-44573.92317220492
-44674.92034633429
-44871.14050279564
-45144.2851686877
-45475.27028835264
-45846.75374552878
-46245.38420152983
-46651.65474386427
-47060.23537873095
-47437.79059398094
-47804.3515312141
-48070.67242729413
-48353.94796915207
-49175.41660174825
-47818.85939302221
-46900.40178083497
-46097.78079336543
-45559.0744848371
-45173.62680269538
-44959.63502958911
-44871.05328782019
-44896.77865566152
-45010.40425617896
-45195.77727732532
-45434.43742980987
-45709.84994583931
-46008.43298207481
-46311.22796226347
-46611.08034574873
-46878.15236762926
-47121.80987034777
-47272.43834414412
-47408.71531262477
-49196.50859951089
-47936.66977399342
-47120.10473995499
-46362.40979519967
-45845.67896442005
-45452.33722158633
-45212.44566125266
-45081.16843600179
-45052.56552000322
-45101.99903849744
-45215.97817193787
-45376.71093518647
-45569.82788058314
-45779.96032318303
-45993.03609461275
-46193.57635600778
-46367.06261037845
-46503.54928321055
-46556.9052250076
-46569.5772656578
-48998.83302544711
-47859.017205118
-47146.01718987253
-46449.1394681948
-45968.24763463
-45584.74310760958
-45336.54578331386
-45180.60839380101
-45115.31308204771
-45117.83083695271
-45176.96332551185
-45276.53760562843
-45402.60552379327
-45542.82106210241
-45679.313432413
-45806.25442672737
-45900.16305530655
-45949.09493750644
-45923.84534608677
-45838.59060238886
-48635.97481561071
-47626.04804842139
-47017.58654741595
-46395.15015006309
-45962.71194199697
-45604.97485728666
-45364.51208742226
-45199.98689263592
-45113.58875422522
-45083.95989664004
-45102.79033453164
-45154.0720994083
-45228.09395977815
-45306.69399924522
-45387.19252529906
-45429.15452035852
-45477.32037067563
-45455.27978680393
-45373.36935930564
-45214.25874534737
-48141.9062100806
-47267.70316335877
-46762.63544854006
-46221.52905545219
-45845.02774009517
-45525.28260667196
-45304.72714279065
-45144.09154306516
-45049.48013282198
-45000.71150609214
-44991.78527166131
-45009.22177895621
-45041.21349419244
-45081.28429095746
-45097.86737776401
-45132.17295147461
-45119.73169569462
-45035.75547660292
-44906.9136174068
-44694.49466561805
-47548.53139925797
-46812.32293894025
-46407.89248637227
-45955.90393180084
-45639.70010433791
-45364.73125752604
-45174.54363018325
-45028.59189493972
-44936.9915869019
-44880.17975244471
-44855.47216930948
-44848.73596507854
-44856.0609107833
-44857.94667774645
-44866.22589114221
-44712.60926129809
-44783.87699304109
-44667.75331660307
-44514.6608656062
-44272.46316799097
-46881.8011040925
-46281.0913134514
-45979.03851607549
-45611.68152999674
-45358.25727074034
-45142.58135673202
-44992.5364695903
-44866.89617346067
-44787.22451292057
-44730.57443176537
-44698.98549224284
-44678.86291301227
-44668.20147365312
-44650.46924761322
-44638.24360663242
-44578.37980213711
-44475.53979970756
-44364.31712640469
-44191.92239524854
-43941.3712570617
-46156.46556516644
-45693.9044444977
-45486.04498404259
-45226.00280662697
-45029.14932058349
-44859.16889341072
-44760.33752754949
-44665.8604230506
-44605.47784223776
-44558.06596037345
-44527.04974915441
-44500.63230665126
-44478.11187637908
-44443.33323725244
-44405.82907033151
-44319.18533700227
-44246.06332141241
-44107.89408703738
-43939.11610938597
-43687.36530076109
-45399.18134899149
-45065.77393265541
-44980.78733306784
-44769.27567950929
-44775.27338967619
-44564.48729287121
-44531.42787068258
-44447.36748224519
-44411.88113216509
-44374.86628581781
-44350.46789798918
-44324.72279527423
-44298.46820282974
-44260.787235548
-44213.92148441595
-44138.91715750362
-44041.50089236738
-43908.04690906304
-43742.10163697677
-43504.56670236453
-44601.59206168701
-44404.47616119676
-44391.12223107046
-44294.65680144438
-44273.27155144382
-44257.35527247463
-44228.772926445
-44210.22880084503
-44197.03416258849
-44183.03604336061
-44169.18055796244
-44149.59877055107
-44124.35697834225
-44085.82859369177
-44036.77696936262
-43961.72375307788
-43873.24333151701
-43745.7204248285
-43595.77943590763
-43380.39423344235
-43803.19629001014
-43741.71544169175
-43825.67542101912
-43834.54424306336
-43876.99006560928
-43913.37081786931
-43950.95692125752
-43969.88716390491
-43988.53648506262
-43995.02268526192
-43995.21120636867
-43984.27783988666
-43963.88283422119
-43929.77172117244
-43883.39209784504
-43817.04283635965
-43734.30157910558
-43622.14208421723
-43491.47369453126
-43306.55518662677
-42984.13256111347
-43062.09830431826
-43242.55282267504
-43354.84841017998
-43482.76525126919
-43583.51733642015
-43668.93536143704
-43733.71766287826
-43782.2388658205
-43812.48678758104
-43827.59845457374
-43827.03699574552
-43813.23384809517
-43784.90369740493
-43744.67365338169
-43687.66154848631
-43618.67014558172
-43525.64726281546
-43420.32588214951
-43271.30044690378
-42197.42692381309
-42415.02745774003
-42694.89445951101
-42907.57815017545
-43112.2598092136
-43277.72492789551
-43417.04898089671
-43522.03102228403
-43600.54025913528
-43651.41609142448
-43680.08042051266
-43688.21358934625
-43680.17307308692
-43657.45978697211
-43623.80577288241
-43577.84255916233
-43523.56178807268
-43453.14645550514
-43376.04668445751
-43266.87308935659
-41379.01652190655
-41747.79240789897
-42137.24889415189
-42457.75291668693
-42747.82620637269
-42984.27031199292
-43177.73235839231
-43324.99478430857
-43432.58298515315
-43503.3470522584
-43543.78125339143
-43558.835077543
-43554.9520219833
-43536.62275146234
-43509.5425493138
-43475.01669981839
-43437.98064214651
-43392.72589930444
-43347.17098536711
-43280.60543676581
-40677.50624544827
-41192.79194125618
-41687.19236857713
-42107.69799854661
-42474.82793783065
-42774.04862083701
-43014.1280298694
-43194.35129541465
-43322.68696290687
-43404.47487144946
-43448.52959963703
-43462.68575122963
-43455.97162509264
-43435.95514437477
-43410.63490516658
-43384.31105997971
-43363.04369320004
-43343.34966484245
-43331.83335299893
-43307.55500016885
-39847.01976734844
-40540.50688860765
-41168.9858174606
-41713.27076481116
-42176.74459189628
-42552.92058903007
-42848.47250109413
-43066.77461251037
-43217.13721198229
-43308.66557518893
-43353.03002502098
-43361.98796613095
-43348.02429027569
-43322.64028329931
-43297.0199435367
-43278.79473981052
-43275.41785843626
-43284.84243158377
-43309.17548606555
-43324.4344119179
-67694.59370410861
-67104.59069169416
-66085.08091443892
-64556.42234763497
-62555.84430643816
-60113.58634006712
-57287.2745145036
-54177.65151747312
-50899.8536739772
-47774.86298650804
-64847.58932907887
-64416.06527738813
-63695.32926736627
-62622.42701104236
-61231.56023574327
-59541.90389639585
-57582.37062031082
-55351.50914124143
-52864.69956172039
-49599.70073360341
-62290.78518063814
-61931.03128567524
-61336.41250552412
-60441.20076692685
-59268.64372984229
-57831.60608330208
-56175.13893812522
-54327.1635016256
-52430.69520268674
-50101.30149230626
-59964.09028169797
-59693.13956806682
-59260.40280049981
-58608.08595593583
-57752.63092183894
-56693.5064351416
-55449.99624528267
-54004.00814827091
-52430.79591007548
-50494.80359114453
-57813.58069635928
-57596.70351213027
-57257.17049828034
-56741.68665640875
-56062.62154954753
-55222.4513967495
-54241.8582453501
-53131.02065611637
-51913.98636616535
-50537.62566477448
-55824.84085038413
-55663.47799296201
-55421.8572360877
-55051.91432117383
-54558.55503182972
-53940.33257045573
-53195.17239981003
-52347.57670179078
-51347.53394395106
-50354.04767616154
-53953.23049609811
-53831.97399144717
-53658.90384709611
-53391.32600454233
-53029.65942908587
-52577.6499931489
-52020.02332362587
-51409.18288443091
-50625.02361831069
-49967.16374952384
-52187.63689553152
-52103.98198785449
-51995.63531166275
-51824.2624134413
-51583.70249840144
-51279.3318136686
-50878.19582286815
-50454.04178877092
-49838.0645506748
-49430.5618846032
-50499.12619300999
-50445.8822000919
-50389.21200241383
-50295.21939681231
-50153.11361040736
-49971.82178116073
-49706.10210856862
-49444.50918597552
-48985.67521017566
-48775.80299430391
-48875.04213498683
-48849.59205564478
-48840.26239566452
-48816.55490619435
-48762.8709483485
-48689.26213584059
-48540.86184330191
-48413.45274351949
-48092.52799136673
-48034.83779349601
-47296.98566205429
-47295.84250567204
-47327.88343464405
-47365.65575589244
-47390.09538793516
-47411.4544481675
-47369.43892147741
-47359.21743061935
-47166.74208268317
-47229.76091161454
-45750.3170749224
-45771.76272111208
-45842.44358163911
-45937.14329480367
-46033.88922439809
-46141.35182983211
-46196.81916768304
-46289.49595477158
-46215.47386319003
-46377.59137077329
-44224.83814176356
-44267.30578038921
-44374.16160636589
-44521.98723391038
-44686.77218155535
-44874.41402472877
-45022.43140481926
-45209.40025540615
-45248.78053621592
-45495.26468856459
-42699.34005059201
-42762.15735336002
-42904.35139409178
-43103.74745293753
-43334.83464282883
-43599.65399282912
-43837.53093472482
-44114.00237980842
-44262.08680892424
-44585.64272411737
-41178.51051401011
-41261.3049159919
-41438.46084586179
-41688.76829878764
-41985.64442712861
-42326.64905952114
-42653.98282815138
-43018.58775303887
-43274.97216638084
-43673.23719507824
-39615.40402987506
-39718.58934851146
-39931.86732682741
-40234.65018362508
-40599.64127302047
-41019.39674269365
-41439.47362475976
-41895.50122203537
-42263.14748651766
-42739.45332347441
-38064.02416803985
-38188.03840288548
-38438.36528037491
-38794.98903015216
-39229.9706285709
-39730.81163063403
-40246.31715540172
-40797.02948577926
-41278.52691658228
-41836.65120738641
-36380.40389006594
-36527.10103515877
-36818.42994446526
-37234.74909736176
-37747.7854587083
-38339.8063162778
-38962.76828252808
-39621.97904684446
-40231.71386560799
-40887.66065540895
-34802.37113849016
-34972.42780902506
-35305.52244931586
-35782.61731284542
-36374.96914815759
-37060.0812723003
-37792.01553477957
-38562.67771137352
-39300.96143024562
-40055.89194219371
-32824.96282255126
-33023.5021646575
-33409.13171182253
-33963.0703487457
-34656.58320703694
-35462.283300443
-36335.83537669938
-37254.97234250987
-38161.5624532091
-39054.06379165676
)
;

boundaryField
{
    left
    {
        type            symmetryPlane;
        value           nonuniform List<scalar> 
30
(
-67694.59370410861
-64847.58932907887
-62290.78518063814
-59964.09028169797
-57813.58069635928
-55824.84085038413
-53953.23049609811
-52187.63689553152
-50499.12619300999
-48875.04213498683
-47296.98566205429
-45750.3170749224
-44224.83814176356
-42699.34005059201
-41178.51051401011
-39615.40402987506
-38064.02416803985
-36380.40389006594
-34802.37113849016
-32824.96282255126
-146866.8664465189
-126889.6314302906
-115462.118050594
-104276.6765611592
-96355.23668887482
-89246.78848814449
-83626.71762829156
-78672.76764861034
-74551.83138790022
-70827.15182684099
)
;
    }
    right
    {
        type            zeroGradient;
    }
    down
    {
        type            symmetryPlane;
        value           nonuniform List<scalar> 
30
(
54201.6494498963
35603.70870016103
23389.69593041312
12560.12123603939
4407.190835809191
-2625.678183558458
-8323.65030470324
-13289.58813790418
-17437.38193491286
-21231.00206531607
-24312.12128463884
-27249.96562750254
-29838.46571215118
-32241.95963361669
-34455.74231553323
-36529.6892536812
-38489.72630308636
-40359.37899799052
-42162.38374304333
-43916.4030473449
-45639.05990394471
-47348.1304867798
-49054.04635849916
-50782.02158434987
-52525.88438420041
-54341.71271951218
-56165.09204603625
-58168.18758032309
-60067.51977051536
-62466.52503709632
)
;
    }
    up
    {
        type            zeroGradient;
    }
    hole
    {
        type            zeroGradient;
    }
    frontAndBack
    {
        type            empty;
    }
}


// ************************************************************************* //
