/*--------------------------------*- C++ -*----------------------------------*\
| =========                 |                                                 |
| \\      /  F ield         | foam-extend: Open Source CFD                    |
|  \\    /   O peration     | Version:     4.1                                |
|   \\  /    A nd           | Web:         http://www.foam-extend.org         |
|    \\/     M anipulation  |                                                 |
\*---------------------------------------------------------------------------*/
FoamFile
{
    version     2.0;
    format      ascii;
    class       vectorField;
    location    "1";
    object      solidsCellD_iteration121;
}
// * * * * * * * * * * * * * * * * * * * * * * * * * * * * * * * * * * * * * //


1000
(
(5.324963630279476e-07 -2.348944108291251e-07 -0.002166345320003392)
(5.014345275828006e-07 -2.180996616348466e-07 -0.0005227364931534445)
(4.813971916524096e-07 -2.072337061776798e-07 -0.001233859873544456)
(4.697090313806736e-07 -2.018827038197104e-07 -0.001435242189749907)
(4.637489175428979e-07 -1.996563858460578e-07 -0.001486363306795406)
(4.61964149543179e-07 -1.998558630780205e-07 -0.001234419731087587)
(4.632461649562775e-07 -2.016256369471462e-07 -0.0009957488766401124)
(4.668533849885277e-07 -2.045524694444256e-07 -0.0007385403854123923)
(4.721547739304674e-07 -2.08276496617312e-07 -0.00057274402657706)
(4.789389963639866e-07 -2.125574921142269e-07 -0.0004193834782652353)
(4.813321705263094e-07 -2.565349396600388e-07 -0.001708882024412776)
(4.482498838309795e-07 -2.446218842224362e-07 -0.001794914544187703)
(4.269605132713538e-07 -2.368324229205572e-07 -0.002362990501685799)
(4.143624052449742e-07 -2.335668472103627e-07 -0.002106969014353553)
(4.07718192746213e-07 -2.32716264905045e-07 -0.001964832252540925)
(4.053313043389336e-07 -2.338868437670036e-07 -0.002120413657787944)
(4.060482777039771e-07 -2.363544316689645e-07 -0.002518463196373354)
(4.090666086408541e-07 -2.397969738750386e-07 -0.002349426134464074)
(4.137475462345362e-07 -2.439691921248691e-07 -0.002105596853887295)
(4.197346353025129e-07 -2.484797368742083e-07 -0.001939407391839724)
(4.282170041173812e-07 -2.770516494590071e-07 -0.0001793320504853077)
(3.944245312221009e-07 -2.705995558137221e-07 -0.001205805479324217)
(3.727169047023518e-07 -2.662575945721012e-07 -0.002160970408798646)
(3.597383086708083e-07 -2.653069971679047e-07 -0.002536585891222222)
(3.527316366197964e-07 -2.659692783450083e-07 -0.002662254130563348)
(3.499320536351905e-07 -2.681875979680652e-07 -0.002679508756844223)
(3.501783061419003e-07 -2.713867841089767e-07 -0.002650945442710509)
(3.526516720745572e-07 -2.753580989959544e-07 -0.002515061505772791)
(3.567150445984119e-07 -2.799591147716312e-07 -0.002171801431129418)
(3.619873711178033e-07 -2.847750584195942e-07 -0.001984220706889805)
(3.735509355639107e-07 -2.960808632148694e-07 -0.0006307601177783714)
(3.404498791231273e-07 -2.953648499433564e-07 -0.001362652104375868)
(3.192151282008508e-07 -2.946496127843547e-07 -0.002228631875062052)
(3.064234123533073e-07 -2.961220764900039e-07 -0.002628483763234137)
(2.994030413061629e-07 -2.983607252854433e-07 -0.002741635238664053)
(2.964000379786448e-07 -3.016619399975924e-07 -0.002674679613130955)
(2.962962257343294e-07 -3.056033664945981e-07 -0.002548082336218255)
(2.982795794110293e-07 -3.101082103470761e-07 -0.002528125050420396)
(3.017654077095817e-07 -3.151161182849519e-07 -0.001164303993590576)
(3.063274182316215e-07 -3.202522755695696e-07 0.0002130726727466239)
(3.176877384540723e-07 -3.132506646544795e-07 -0.0009755241382213703)
(2.866964065711144e-07 -3.182250706336479e-07 -0.001035318722489895)
(2.668356452584687e-07 -3.211106503687538e-07 -0.0006959069841646071)
(2.54804750008049e-07 -3.249797356676595e-07 -0.0002428496137658609)
(2.481228911236644e-07 -3.287720962942794e-07 -6.124316298044413e-05)
(2.45130475501514e-07 -3.3313444039891e-07 4.872147675564348e-05)
(2.447950533178442e-07 -3.377953257729608e-07 0.0001266794912738317)
(2.463506798749801e-07 -3.42818311419535e-07 0.0001651799069605081)
(2.492787059951784e-07 -3.482096611232026e-07 0.0001135953966143605)
(2.531429519773734e-07 -3.536753897338883e-07 -0.0001078827501227037)
(2.609275725460129e-07 -3.282034106280918e-07 -0.001240751117772117)
(2.3340660502477e-07 -3.385059447347138e-07 -0.0006254382808957085)
(2.157836260110644e-07 -3.447654997661307e-07 -0.0004581725996823452)
(2.050644980981597e-07 -3.508749781505741e-07 -0.0002921296331400078)
(1.990600661732831e-07 -3.561169919573367e-07 -0.0001502774673872373)
(1.962845989254725e-07 -3.614665253701705e-07 0.0002020501643218015)
(1.958326391419969e-07 -3.667922289270556e-07 0.0001660713590764945)
(1.970173549117457e-07 -3.722959160684329e-07 7.208537008973614e-05)
(1.994025263811185e-07 -3.780352658068008e-07 -6.48882311262422e-05)
(2.025654444879038e-07 -3.838187539506833e-07 -0.0001897397165038159)
(2.035199312524703e-07 -3.406083599430257e-07 -0.001239280883636097)
(1.806981579082278e-07 -3.555798096933976e-07 -0.0007122019351177636)
(1.660923962470982e-07 -3.647974690411432e-07 -0.0004963954187862246)
(1.571816263280223e-07 -3.728679853593619e-07 6.469854536514386e-05)
(1.521593412255597e-07 -3.793775339410511e-07 0.0001269086833113053)
(1.49786287569555e-07 -3.855890844084712e-07 9.985616626490001e-05)
(1.493189033554058e-07 -3.914933991289263e-07 3.576604194597405e-05)
(1.501830499713313e-07 -3.974180724204826e-07 -2.018255549235404e-05)
(1.520329624644481e-07 -4.034579312404225e-07 -0.0001025017542304468)
(1.544930333114591e-07 -4.095298782935543e-07 -0.0002142985981098897)
(1.456663126076006e-07 -3.501784049501868e-07 -0.001140434057974232)
(1.285763888224127e-07 -3.688998694451785e-07 -0.000698131598050683)
(1.176423586913428e-07 -3.804949386352472e-07 -0.0002709936042605623)
(1.109572575112547e-07 -3.901402510458364e-07 0.0001447265299921105)
(1.071730871978894e-07 -3.97667270930385e-07 0.0001008826043170305)
(1.053580873379971e-07 -4.045706149491521e-07 5.272387356381608e-05)
(1.049595998576027e-07 -4.10938530108203e-07 -2.652413523630825e-06)
(1.055446033611792e-07 -4.172025895474544e-07 -7.694047226605716e-05)
(1.068635651381698e-07 -4.234824880085328e-07 -0.0001799778863947749)
(1.086197147128561e-07 -4.297938261413965e-07 -0.0003160841691159794)
(8.752657436928967e-08 -3.566851889159081e-07 -0.001137240293880723)
(7.694563340006438e-08 -3.78030129073419e-07 -0.0006696461969143142)
(7.017537296588126e-08 -3.912887395636181e-07 -0.0003034116387999192)
(6.602919041038646e-08 -4.020355808886933e-07 0.0002713012527460895)
(6.367485773154415e-08 -4.102741291570831e-07 0.0001361873146569631)
(6.253431091261121e-08 -4.176613345400074e-07 2.978996222848668e-05)
(6.226691777863231e-08 -4.243534079613608e-07 -5.456310141117859e-05)
(6.260341052800049e-08 -4.308560564378723e-07 -0.0001644936176672732)
(6.339298914187408e-08 -4.373041368591693e-07 -0.000303206165496013)
(6.444558639807085e-08 -4.437877196249183e-07 -0.0003800301293816616)
(2.923077062382302e-08 -3.599629080886173e-07 -0.006198720954148931)
(2.564436134458073e-08 -3.82662310537872e-07 -0.0006262287831406421)
(2.334692190793971e-08 -3.967800042756421e-07 -0.0006409318515437634)
(2.193704423980211e-08 -4.08096831457249e-07 0.0001371084219205509)
(2.1133777408017e-08 -4.167036306462968e-07 0.0003545077243911482)
(2.074133010065884e-08 -4.243415413668057e-07 0.0001091490295567765)
(2.064456326525571e-08 -4.312016125479967e-07 -0.0001418438812715653)
(2.075200405229347e-08 -4.378281630796402e-07 -0.0002899678393179297)
(2.101322869721632e-08 -4.443636827353561e-07 -0.0004534067431927261)
(2.136260777408735e-08 -4.509372483256497e-07 -0.0006299987751919311)
(8.330573206599688e-07 -1.073695750131084e-08 -0.0001668625338732826)
(8.40823377473178e-07 -7.728452269364938e-09 -0.0005828172714781171)
(8.453038672315004e-07 -5.809114066475303e-09 -0.0005841944523171522)
(8.500437640234904e-07 -4.66806307312677e-09 -0.0005703989155514677)
(8.551018638143037e-07 -4.020099368371562e-09 -0.0005577613135397536)
(8.613346447489536e-07 -3.703208330105686e-09 -0.000573336813296535)
(8.687212796530976e-07 -3.608945831092727e-09 -0.0006360200556239926)
(8.773846664318301e-07 -3.660715742363857e-09 -0.000625284899004902)
(8.872916570283225e-07 -3.817232408856469e-09 -0.0006069920894277575)
(8.983134509076733e-07 -4.009656527233675e-09 -0.0005224311153425865)
(8.268358313279518e-07 -3.220320032717872e-08 -0.0009421747215835746)
(8.33309822212006e-07 -2.335375173319836e-08 -0.000859293611271017)
(8.369804683395334e-07 -1.772013321958719e-08 -0.0007178037281951044)
(8.411801993618265e-07 -1.437986002075326e-08 -0.0006293258819983494)
(8.458837476663801e-07 -1.249073246910391e-08 -0.0005694926986795357)
(8.518650362300357e-07 -1.157527944506923e-08 -0.000540319172714715)
(8.590699930270429e-07 -1.131398616028256e-08 -0.0005691463830999471)
(8.67584246145744e-07 -1.148202790206957e-08 -0.0006000854301886488)
(8.773693492710801e-07 -1.195625278909837e-08 -0.0005943994037629213)
(8.882542217928039e-07 -1.253716208063832e-08 -0.0005167812771078584)
(8.144133879208929e-07 -5.385471046955671e-08 -0.001031649764020016)
(8.184263678006121e-07 -3.964037780899543e-08 -0.0009422265226339127)
(8.205383815044549e-07 -3.059773239130855e-08 -0.0002268020838922802)
(8.237048166956409e-07 -2.525042766217264e-08 0.0001141919641480943)
(8.277269608840421e-07 -2.223778930699358e-08 -0.0001249513300884963)
(8.332253369915455e-07 -2.079468593749804e-08 -0.0004699621316481828)
(8.400801972477389e-07 -2.040436203107937e-08 -0.000469982594811319)
(8.483067873265235e-07 -2.070819613013846e-08 -0.0005201153962216265)
(8.578562254633809e-07 -2.150218740284272e-08 -0.0005494408222141006)
(8.684761742150991e-07 -2.24759946629106e-08 -0.0004970933770561403)
(7.960159663995269e-07 -7.577236499493617e-08 -0.001092654912081305)
(7.965287133306952e-07 -5.696144944673593e-08 0.0001581583538586839)
(7.964234390105247e-07 -4.499133241015472e-08 0.00118950132926067)
(7.981196669422809e-07 -3.794101541109821e-08 0.001208612127475528)
(8.011714094551756e-07 -3.398938368965685e-08 0.001203948948692038)
(8.059814452216629e-07 -3.212993426430589e-08 0.001176324731185951)
(8.123363333982491e-07 -3.166992514165217e-08 0.001121558172061471)
(8.201531936903308e-07 -3.21397125669098e-08 -0.0002180176740324835)
(8.293652879972643e-07 -3.325618567074451e-08 -0.0004091590803309425)
(8.396124104304997e-07 -3.462916144060395e-08 -0.0004720080829236223)
(7.719406957235469e-07 -9.801757482912121e-08 -0.0006412017025080388)
(7.681221481153578e-07 -7.562790993997715e-08 0.0007064612440616166)
(7.652747707433832e-07 -6.137152653090842e-08 0.0007275371560260188)
(7.651519461709255e-07 -5.302261656086338e-08 0.0007849682686376994)
(7.670012742563505e-07 -4.837827485484274e-08 0.0007389423626022046)
(7.709574486279676e-07 -4.625121183616318e-08 0.0006084411485574176)
(7.766894791704968e-07 -4.580202154430937e-08 0.0005417102898407078)
(7.839976304051594e-07 -4.64787701606972e-08 0.0005317426109808371)
(7.927862088949655e-07 -4.792393696344229e-08 0.0005729466435479488)
(8.02577014495917e-07 -4.970331007031487e-08 6.766500335004394e-05)
(7.425623578742203e-07 -1.205955182422522e-07 -0.000328094965346408)
(7.338425800060455e-07 -9.583547895138429e-08 0.0001958994677723341)
(7.278935528681188e-07 -8.005409560708572e-08 0.0002203922890375992)
(7.257094076887005e-07 -7.088671801532416e-08 0.0002795476917988038)
(7.261928180373835e-07 -6.584192649205025e-08 0.0001143527187488572)
(7.291756368056401e-07 -6.36237758908051e-08 -4.225915239270545e-05)
(7.341925513157322e-07 -6.32812104455612e-08 -0.00010494587400664)
(7.409176972390848e-07 -6.421370022830624e-08 0.0001266949175422402)
(7.49212516497145e-07 -6.599592456097268e-08 0.0003563286375770844)
(7.584889670056324e-07 -6.818784492045219e-08 0.0005059458161455407)
(7.083165552801454e-07 -1.434640193160989e-07 0.0007050253807607057)
(6.944235641951234e-07 -1.176647687559576e-07 -0.0003683173345752563)
(6.852028175409757e-07 -1.011991667375682e-07 -0.0003449271671071355)
(6.808388824543469e-07 -9.174421176189723e-08 -0.0002962924389920268)
(6.798724231315835e-07 -8.662342533282242e-08 -0.0005533986076640546)
(6.818164465399966e-07 -8.451027315098203e-08 -0.0007378978667245267)
(6.86061479897054e-07 -8.438401016709172e-08 -0.0004006192947192677)
(6.921573088552847e-07 -8.562754707611433e-08 2.611246215980523e-05)
(6.99906332742459e-07 -8.776466996025978e-08 0.0002887512890752744)
(7.086368969741362e-07 -9.037546004206832e-08 0.0004785587598304664)
(6.696803702814754e-07 -1.665180612865507e-07 0.0007382812932078403)
(6.506585026121478e-07 -1.410595903605597e-07 -0.00069997576793384)
(6.381962922741645e-07 -1.247823329346856e-07 -0.000357650743341556)
(6.316632037574345e-07 -1.155904771391273e-07 -0.0004813684639326868)
(6.292441215080949e-07 -1.107294004194471e-07 -0.001169815876277992)
(6.301359596782362e-07 -1.089237655645002e-07 -0.001106968114819765)
(6.335841248310133e-07 -1.091252434220551e-07 -0.001424179182539863)
(6.39026269678244e-07 -1.10739246232214e-07 -0.0005544550974997189)
(6.461876420330265e-07 -1.132486598957636e-07 -0.0003578739281462628)
(6.543629283022358e-07 -1.162958542653987e-07 0.000292116188051833)
(6.271599418548694e-07 -1.895959333369453e-07 0.0004884572049168659)
(6.033720712466007e-07 -1.658306386765616e-07 0.0003026280161081141)
(5.879027585963345e-07 -1.505986043181926e-07 -0.002543497517885976)
(5.793459178323978e-07 -1.42210184829195e-07 -0.0009094201987408443)
(5.755594367230263e-07 -1.379394228180484e-07 -0.0006048118346959272)
(5.754465225900435e-07 -1.366376236185842e-07 -0.0004330513960948135)
(5.781122783772115e-07 -1.372819609152166e-07 -0.0003687017980986973)
(5.829066488875013e-07 -1.393174110837309e-07 -0.0003935775079933063)
(5.894509753405672e-07 -1.422473068493292e-07 -0.0005190294364232489)
(5.970911507800724e-07 -1.457387383234093e-07 9.621561484118857e-05)
(5.812634889753863e-07 -2.124782820520154e-07 0.0002831390136562167)
(5.533723782501842e-07 -1.916576099391402e-07 -0.002286723299868074)
(5.353195516370147e-07 -1.782649270002849e-07 -0.001826078539699953)
(5.250040326795847e-07 -1.711801849989741e-07 -0.001748681729346269)
(5.200080474573266e-07 -1.678021464010562e-07 -0.002266815644206759)
(5.189767113614297e-07 -1.67181738795507e-07 -0.002200565160425397)
(5.208965614067122e-07 -1.683558641143228e-07 -0.002086017144113484)
(5.25045522986944e-07 -1.708570203992497e-07 -0.00195039453709267)
(5.309496789693496e-07 -1.74197138805476e-07 -0.001573899654967917)
(5.380767738910068e-07 -1.782455881737808e-07 -0.0008651972257451152)
(9.104963089619131e-07 -4.206462987272161e-09 -0.000348046580839062)
(9.237941768329629e-07 -4.229160777901468e-09 -0.0001672943923964054)
(9.379555745614461e-07 -4.266600387155503e-09 -1.480956045209203e-05)
(9.529333226628916e-07 -4.288661906776034e-09 -3.474106929932108e-05)
(9.686284059338828e-07 -4.290284680816024e-09 -5.818163545943944e-05)
(9.84976238240178e-07 -4.269857021092191e-09 -8.683752740171191e-05)
(1.001903547595405e-06 -4.222056006807867e-09 -0.0001108029251530723)
(1.019345445630085e-06 -4.146180251397192e-09 -0.0001490653371725714)
(1.037240034680106e-06 -4.039204010867297e-09 -7.35700859344629e-05)
(1.055526873838607e-06 -3.899570931361299e-09 2.802862564603437e-05)
(1.074149185642955e-06 -3.724630170942707e-09 -2.138787887737137e-05)
(1.093048257930895e-06 -3.511771302019575e-09 -7.068001548098113e-05)
(1.112169304671867e-06 -3.257497783247843e-09 -0.0001320106245663588)
(1.131448536087687e-06 -2.957772975995377e-09 -0.0002205940051032973)
(1.150833357559433e-06 -2.607385757653252e-09 -0.0003132190807451432)
(1.170239808853947e-06 -2.200328210714707e-09 -0.0004121582109005845)
(1.189630055454589e-06 -1.728596468925329e-09 -0.0004951030744782189)
(1.208856585522783e-06 -1.183806875456787e-09 -0.0005597272592822652)
(1.227958588136506e-06 -5.521118005933036e-10 -0.0006347200713304815)
(1.24657609655997e-06 1.719521068773759e-10 -0.0006648399592457388)
(9.008887730726815e-07 -1.308131383259251e-08 -0.0003303526650624417)
(9.149965365971194e-07 -1.308625576602264e-08 -0.0001404701202590841)
(9.298818788239378e-07 -1.314076301269978e-08 3.340072020246998e-05)
(9.454857056268077e-07 -1.31603224311198e-08 1.154237032849337e-05)
(9.617384489131536e-07 -1.312528521529431e-08 -1.166651776497718e-05)
(9.785782813689143e-07 -1.30315947614586e-08 -3.402864559948204e-05)
(9.959471989033665e-07 -1.286120439445753e-08 -0.0001067800605041996)
(1.013785413376501e-06 -1.261178968476772e-08 -8.421734188440722e-05)
(1.03203974735122e-06 -1.227306229005974e-08 2.240981125872787e-05)
(1.050654535303839e-06 -1.184000234813439e-08 0.0001549625565171742)
(1.069578415690599e-06 -1.130393968298444e-08 0.000152007669619092)
(1.088756525578318e-06 -1.065668905888635e-08 0.0001100904768366814)
(1.10813777290572e-06 -9.887336922302086e-09 6.493313210188117e-05)
(1.127661388720968e-06 -8.983495626298938e-09 -1.267000324428613e-05)
(1.147277549923994e-06 -7.929244871845907e-09 -9.784839232571119e-05)
(1.166904809854776e-06 -6.706371954769978e-09 -0.0001898209233609505)
(1.186507644414266e-06 -5.290693276540017e-09 -0.0002871547271245528)
(1.205940971822536e-06 -3.656893562019743e-09 -0.0003662789551178436)
(1.225246132194607e-06 -1.763448149135575e-09 -0.0004520588638044568)
(1.244066415425457e-06 4.062170487515864e-10 -0.000578754853550488)
(8.81992064738477e-07 -2.32263197622357e-08 -0.0003696590469136479)
(8.976868147380403e-07 -2.303229092065682e-08 -0.0001701543217546425)
(9.139886225919304e-07 -2.29400451243284e-08 2.810909443415333e-05)
(9.308181747172696e-07 -2.283191263994561e-08 2.151353273301126e-05)
(9.481640213167569e-07 -2.265491700363947e-08 7.402861804034488e-06)
(9.659686446716706e-07 -2.24044927848722e-08 -1.332973951359562e-05)
(9.842046846105851e-07 -2.204331980651231e-08 -8.093445077525518e-05)
(1.002821477521401e-06 -2.156574429351574e-08 -6.354514777010684e-05)
(1.021783231681012e-06 -2.095148956667342e-08 2.291259938404233e-05)
(1.041043206300838e-06 -2.019025226406708e-08 0.0001577375682553228)
(1.06056074656176e-06 -1.926585529199179e-08 0.0002685724276314319)
(1.080288353504676e-06 -1.81633009900923e-08 0.0002360946712441081)
(1.10018217751197e-06 -1.686327162678609e-08 0.000200589891309215)
(1.120187345691023e-06 -1.534420581996276e-08 0.000158865901712088)
(1.140259423351637e-06 -1.35787873981049e-08 8.819464672742139e-05)
(1.160321986315906e-06 -1.153600005701117e-08 -1.678439306392054e-05)
(1.180343945546946e-06 -9.174909943504731e-09 -0.0001284663204762504)
(1.200185258296499e-06 -6.452895861869233e-09 -0.0002143536171374458)
(1.219891090119698e-06 -3.300313696100824e-09 -0.0003142123067658223)
(1.239111866899628e-06 3.110919656363608e-10 -0.0004444177448724995)
(8.54385417428939e-07 -3.536690042195999e-08 -0.0004208367087254195)
(8.723582720470328e-07 -3.469163486880562e-08 -0.0002585995161587112)
(8.907100376465892e-07 -3.419250809494155e-08 -4.382969154942407e-05)
(9.093149131300409e-07 -3.375792052763859e-08 5.968592833027753e-07)
(9.282516980681957e-07 -3.327131352870604e-08 -6.041976946202787e-06)
(9.474624697381377e-07 -3.273095953338011e-08 -1.683677204503131e-05)
(9.669653970694329e-07 -3.207044624462002e-08 -8.730920441596401e-05)
(9.86721263335187e-07 -3.127798527521447e-08 -7.842558371462527e-05)
(1.006719137845339e-06 -3.031906869841019e-08 -5.64167161681145e-05)
(1.026924846370788e-06 -2.917529831580962e-08 8.264068110806766e-05)
(1.04731288884009e-06 -2.782058632452981e-08 0.0002221202679158346)
(1.067846389785233e-06 -2.623106265224242e-08 0.0002921163369298194)
(1.08849184518613e-06 -2.43774627490889e-08 0.0002647396642295879)
(1.109202961051952e-06 -2.222762481237359e-08 0.0002136998567375953)
(1.129943134863487e-06 -1.974172360871309e-08 0.0001435956286851003)
(1.150643321806602e-06 -1.687492642609437e-08 6.422443413967721e-05)
(1.171278988112161e-06 -1.356865736988492e-08 -3.579085235163454e-05)
(1.191717672935939e-06 -9.762058982062043e-09 -0.0001423008300124665)
(1.212010150622588e-06 -5.356610877398137e-09 -0.0002259616574330423)
(1.231818025065834e-06 -3.104137263578194e-10 -0.0003567457074978853)
(8.189039572921543e-07 -5.015042345852153e-08 -0.0003608910793933412)
(8.397305211014444e-07 -4.863019480566275e-08 -0.0003767768351602627)
(8.606788079870905e-07 -4.738699412142536e-08 -0.0001906285038472677)
(8.815376968119146e-07 -4.636527944465665e-08 -5.403452728738878e-05)
(9.0250697893908e-07 -4.535057051251635e-08 -4.813438178122992e-05)
(9.235188662298271e-07 -4.434431342418566e-08 -4.9118968081234e-05)
(9.446492513094104e-07 -4.324164357087431e-08 -9.241777619589664e-05)
(9.658714550715987e-07 -4.201870510525281e-08 -0.0001181106210037322)
(9.872049336591965e-07 -4.06226531504577e-08 -0.0001135911068859408)
(1.008631251690051e-06 -3.902253556616861e-08 -4.398135781740614e-05)
(1.030143439122869e-06 -3.717974360021164e-08 0.0001035410987798163)
(1.051718131395163e-06 -3.505883806479388e-08 0.0002426574911119014)
(1.073334686078784e-06 -3.261875732282711e-08 0.000253681469329442)
(1.094957756207938e-06 -2.981508596070009e-08 0.0001943078769101186)
(1.116560638340619e-06 -2.659416981824491e-08 0.0001292449293118364)
(1.138083851212837e-06 -2.289623931042912e-08 4.929758270717094e-05)
(1.159511208749363e-06 -1.86440452741143e-08 -4.670177310223816e-05)
(1.180720473183444e-06 -1.375769952479329e-08 -0.0001489374054896297)
(1.201769395434906e-06 -8.10908926260895e-09 -0.0002239172800913569)
(1.222335420476711e-06 -1.64104224436684e-09 -0.0003014832200341488)
(7.765686948334781e-07 -6.80325531797202e-08 0.0005222296989124547)
(8.006793876083222e-07 -6.524841067466524e-08 -0.0002824790144788369)
(8.246597463812731e-07 -6.286765521387975e-08 -0.0003701211616723293)
(8.481643840939927e-07 -6.094478533742965e-08 -0.0001954473041730909)
(8.715376559879279e-07 -5.914095571125362e-08 -0.0001316332232928971)
(8.946914392034347e-07 -5.745412742014944e-08 -0.0001255103798548166)
(9.177639727321293e-07 -5.573654081729308e-08 -0.0001168504158997816)
(9.407428282414474e-07 -5.394298900723639e-08 -0.0001853861630803574)
(9.636789822720695e-07 -5.199899753646172e-08 -0.0001740869247721516)
(9.865727265245372e-07 -4.985529728370453e-08 -0.0001625942118232762)
(1.009437054643196e-06 -4.745757274829563e-08 -8.460665610257601e-05)
(1.032264544950061e-06 -4.475532797143193e-08 3.140886888177569e-05)
(1.055049164375814e-06 -4.169326171822321e-08 0.0001322693996444468)
(1.077768555778791e-06 -3.821249939637371e-08 0.0001175377644404285)
(1.100407671548892e-06 -3.424387533105889e-08 5.023952474849519e-05)
(1.122918623890333e-06 -2.971125638073728e-08 1.986830695857589e-05)
(1.145295262365162e-06 -2.451760067512567e-08 -8.326630799172785e-06)
(1.167428238574025e-06 -1.856293834713116e-08 -2.78983660257151e-05)
(1.189383689392211e-06 -1.168890545667816e-08 -4.036974116700814e-05)
(1.210860237527526e-06 -3.820877794503126e-09 -0.0001328873621146073)
(7.285630242681699e-07 -8.930890457840749e-08 0.0005500950188285156)
(7.562306770565713e-07 -8.483083750093645e-08 0.0005948926399404059)
(7.835498719906392e-07 -8.091769956248473e-08 -0.0001770785772915243)
(8.09994765284141e-07 -7.775883516157695e-08 -0.0002806655752688805)
(8.360567962374826e-07 -7.489557497063935e-08 -0.000353540913620512)
(8.616266351197968e-07 -7.229707936579761e-08 -0.0002773334709399514)
(8.868959494559389e-07 -6.977860422101432e-08 -0.0001340035099867548)
(9.118722927843378e-07 -6.725943242663422e-08 -0.0001763344623979535)
(9.366343248387419e-07 -6.464207346402024e-08 -0.0001660291488800522)
(9.6120455280201e-07 -6.185279400219193e-08 -0.0001393254005436981)
(9.856155580029791e-07 -5.881899078722722e-08 -0.0001319560954639656)
(1.009877810376384e-06 -5.547206209160112e-08 -8.927142474010608e-05)
(1.034000597129899e-06 -5.174045734985193e-08 4.784495699654279e-05)
(1.057976045285855e-06 -4.754901649373484e-08 0.0001628901549928508)
(1.081801786541007e-06 -4.281171372140436e-08 0.000154319711276156)
(1.10544320862385e-06 -3.743490642360071e-08 0.0001312105481239834)
(1.128905323142443e-06 -3.130095024880166e-08 0.0001152620116464803)
(1.152094355389208e-06 -2.428932265393039e-08 0.0001100037477858445)
(1.175085452998773e-06 -1.621176589218877e-08 6.130017667016485e-05)
(1.197604121775939e-06 -6.975440884417192e-09 5.490492236241706e-06)
(6.761038530208833e-07 -1.140265892619714e-07 0.0004661299346547867)
(7.074327262336636e-07 -1.073947845282232e-07 0.0006100577296682119)
(7.382451714606089e-07 -1.015622404994428e-07 0.0007162306580676334)
(7.678328136388439e-07 -9.679639708572566e-08 -0.0001137587997276646)
(7.967812770772998e-07 -9.258451902145744e-08 -0.0003822014482656247)
(8.249846651465995e-07 -8.882134025444661e-08 -0.0003230391388004614)
(8.526562990060168e-07 -8.530074268440105e-08 -0.000220679343646564)
(8.798332451810689e-07 -8.189286787460506e-08 -0.0001085632350593668)
(9.066112290186727e-07 -7.847454024051689e-08 5.339011173437214e-06)
(9.330373215989857e-07 -7.494145609823407e-08 7.810749783357385e-05)
(9.591615538670647e-07 -7.119799506800754e-08 7.106092318993895e-05)
(9.850134662458484e-07 -6.715350017297902e-08 6.464119962240611e-05)
(1.010618112371442e-06 -6.271682838952344e-08 5.499475084198846e-05)
(1.035983279483916e-06 -5.77941369681562e-08 0.0001552548534696288)
(1.061120428871742e-06 -5.228066277210164e-08 0.0002442163844426845)
(1.08600967089548e-06 -4.60640710593663e-08 0.0002217613931569662)
(1.110668539947291e-06 -3.900534087037912e-08 0.0002147693709643045)
(1.135021283028387e-06 -3.096299353588303e-08 0.0001630285518873023)
(1.159153349775608e-06 -2.171889442535818e-08 0.00010568068495731)
(1.182822819171503e-06 -1.116062648501444e-08 7.846216671372058e-05)
(6.205168627585177e-07 -1.421440314456399e-07 -0.002141225996471999)
(6.554899370116958e-07 -1.329620598639197e-07 2.613832742399957e-05)
(6.897747580868914e-07 -1.249610375050993e-07 0.0006213589936940739)
(7.22600671888721e-07 -1.182758101175741e-07 0.0009108793441986243)
(7.545160790604145e-07 -1.124705602924038e-07 -0.0002278314650512245)
(7.854745639674589e-07 -1.073183260398732e-07 -0.000490555763462415)
(8.15670378085333e-07 -1.026015946439841e-07 -0.0002429738720910457)
(8.451791236884991e-07 -9.813689861327095e-08 -0.0001281182356702576)
(8.741049639478348e-07 -9.377246678794115e-08 -6.704182956387972e-05)
(9.025181262841705e-07 -8.937298805304913e-08 0.0001018490042401995)
(9.304837059274823e-07 -8.481784261125138e-08 0.00027603801756515)
(9.580485050463048e-07 -7.999336912963356e-08 0.0003043811117183839)
(9.852524391854179e-07 -7.478734395331779e-08 0.000249940958470779)
(1.012118356964918e-06 -6.908611291106498e-08 0.000198968151224381)
(1.038671443132366e-06 -6.27652240326105e-08 0.0002350346211829404)
(1.064907255716637e-06 -5.569293229020201e-08 0.0002898367913436312)
(1.090856226778752e-06 -4.770884156212365e-08 0.000230256653358879)
(1.116463268490608e-06 -3.865093892123755e-08 0.0001347685470884791)
(1.141823702860608e-06 -2.827383926274633e-08 8.355358272411212e-05)
(1.166734918080054e-06 -1.644792435590086e-08 6.655147431140068e-05)
(5.628202687639915e-07 -1.731217986730184e-07 -0.001351921444571389)
(6.013272140607013e-07 -1.608899822102354e-07 -0.0003189092254234291)
(6.388734894315366e-07 -1.504731462802242e-07 -0.0007900411365205362)
(6.749924471037931e-07 -1.415593927793281e-07 3.819829782005651e-05)
(7.099435979332349e-07 -1.338889040286612e-07 0.0006545356620881945)
(7.437782623770898e-07 -1.271304699724717e-07 -0.0003640925417300322)
(7.766280433773814e-07 -1.210417217588622e-07 -0.0005141704823541302)
(8.085965210543332e-07 -1.153915679263968e-07 -0.0001288506281998322)
(8.397908607504379e-07 -1.099870378327975e-07 -1.879640480420552e-05)
(8.703009610418854e-07 -1.046567984362567e-07 4.796532921648444e-05)
(9.002076493096355e-07 -9.924808598289017e-08 0.0001822891071562027)
(9.295755417804709e-07 -9.361986852985377e-08 0.0003344415841342596)
(9.584606439439082e-07 -8.763553237390582e-08 0.0004400507494491945)
(9.8690178736878e-07 -8.115953223959746e-08 0.000366802435813704)
(1.014938836866915e-06 -7.404672830766962e-08 0.0002949775431183785)
(1.042583538840181e-06 -6.614579731823565e-08 0.0002051853946138313)
(1.069880223921578e-06 -5.727549433702307e-08 0.0001227270093420788)
(1.096796354234891e-06 -4.725429903863137e-08 2.613472683891255e-05)
(1.123439036657618e-06 -3.581026627942321e-08 -2.695801765580097e-05)
(1.149650969369353e-06 -2.279347375329683e-08 5.483232808402294e-05)
(5.205948604787979e-07 -2.0224344700149e-07 -0.0004555081677436309)
(5.612143389111584e-07 -1.87708773249663e-07 -0.0008662247949459689)
(6.005520061933437e-07 -1.755870087008859e-07 -0.001621780104024455)
(6.385501510946664e-07 -1.64989778182731e-07 -0.0009899041409384968)
(6.753089297792899e-07 -1.557427003528391e-07 -0.0002060618152449449)
(7.108953919164756e-07 -1.475256806112084e-07 3.087682649568005e-05)
(7.454183991415894e-07 -1.400922967031621e-07 -0.0005379837719205541)
(7.789696836514835e-07 -1.332099654349754e-07 -0.0001298550555182826)
(8.116497677188111e-07 -1.266739793505723e-07 5.104959716992208e-05)
(8.435453866841536e-07 -1.20299821077992e-07 9.288914876813548e-05)
(8.747386192432261e-07 -1.13919455791094e-07 0.0001841532266803406)
(9.052981117071654e-07 -1.073764576546311e-07 0.0002403787228706031)
(9.352863449431833e-07 -1.005193974230859e-07 0.0003297307148519141)
(9.647510564887954e-07 -9.319882403707074e-08 0.0004046500163392558)
(9.93741772451839e-07 -8.525717601399145e-08 0.0002636281995280973)
(1.02228419257856e-06 -7.653183514858247e-08 7.55971639763986e-05)
(1.050433365115169e-06 -6.683245295842578e-08 -7.952524408768452e-05)
(1.078180258282347e-06 -5.596994197496587e-08 -0.0001609720161218561)
(1.105637137425613e-06 -4.366635921281668e-08 -7.534430569328121e-05)
(1.132695836625372e-06 -2.976941210844561e-08 0.0001030195560553504)
(4.961357063211104e-07 -2.255839079190652e-07 8.614414770408141e-05)
(5.369943284021209e-07 -2.105154759124807e-07 -0.0004121062629940048)