/*--------------------------------*- C++ -*----------------------------------*\
| =========                 |                                                 |
| \\      /  F ield         | foam-extend: Open Source CFD                    |
|  \\    /   O peration     | Version:     4.1                                |
|   \\  /    A nd           | Web:         http://www.foam-extend.org         |
|    \\/     M anipulation  |                                                 |
\*---------------------------------------------------------------------------*/
FoamFile
{
    version     2.0;
    format      ascii;
    class       volScalarField;
    location    "10";
    object      epsilonEq;
}
// * * * * * * * * * * * * * * * * * * * * * * * * * * * * * * * * * * * * * //

dimensions      [0 0 0 0 0 0 0];

internalField   nonuniform List<scalar> 
100000
(
2.10345e-05
2.13154e-05
2.14694e-05
2.16077e-05
2.17326e-05
2.18443e-05
2.1944e-05
2.2031e-05
2.21061e-05
2.21701e-05
2.22243e-05
2.2268e-05
2.23019e-05
2.23273e-05
2.23448e-05
2.23535e-05
2.23547e-05
2.23492e-05
2.23369e-05
2.23191e-05
2.22954e-05
2.22656e-05
2.22318e-05
2.21932e-05
2.21502e-05
2.2103e-05
2.20523e-05
2.19982e-05
2.1941e-05
2.18805e-05
2.1818e-05
2.17505e-05
2.16855e-05
2.16186e-05
2.1545e-05
2.14719e-05
2.13965e-05
2.13202e-05
2.12425e-05
2.11638e-05
2.10842e-05
2.10035e-05
2.0922e-05
2.08398e-05
2.0757e-05
2.06738e-05
2.02105e-05
1.96286e-05
1.91062e-05
1.86403e-05
1.82275e-05
1.78656e-05
1.75509e-05
1.72819e-05
1.71849e-05
1.71167e-05
1.69698e-05
1.68592e-05
1.67831e-05
1.67398e-05
1.67276e-05
1.67449e-05
1.67902e-05
1.68622e-05
1.69595e-05
1.70808e-05
1.72253e-05
1.73918e-05
1.75792e-05
1.77866e-05
1.80129e-05
1.82574e-05
1.85191e-05
1.86521e-05
1.85783e-05
1.85052e-05
1.84329e-05
1.83613e-05
1.82906e-05
1.82208e-05
1.81518e-05
1.80836e-05
1.80164e-05
1.79502e-05
1.78851e-05
1.78212e-05
1.77585e-05
1.7697e-05
1.7637e-05
1.75786e-05
1.75219e-05
1.74672e-05
1.74148e-05
1.73651e-05
1.73184e-05
1.7275e-05
1.72341e-05
1.71982e-05
1.7148e-05
1.71221e-05
2.10834e-05
2.13401e-05
2.14981e-05
2.16395e-05
2.17682e-05
2.18821e-05
2.19842e-05
2.2074e-05
2.21509e-05
2.2217e-05
2.22724e-05
2.23178e-05
2.23529e-05
2.23792e-05
2.23974e-05
2.24077e-05
2.24096e-05
2.24048e-05
2.2393e-05
2.23753e-05
2.23523e-05
2.2323e-05
2.22892e-05
2.22509e-05
2.22081e-05
2.21611e-05
2.21105e-05
2.20566e-05
2.19994e-05
2.19394e-05
2.18767e-05
2.18114e-05
2.17629e-05
2.16738e-05
2.16022e-05
2.15289e-05
2.14539e-05
2.13774e-05
2.12997e-05
2.12208e-05
2.11409e-05
2.04646e-05
1.95688e-05
1.8751e-05
1.80074e-05
1.73414e-05
1.67641e-05
1.62266e-05
1.57324e-05
1.52946e-05
1.49091e-05
1.4574e-05
1.42853e-05
1.40361e-05
1.40522e-05
1.38956e-05
1.37743e-05
1.36879e-05
1.36345e-05
1.36124e-05
1.36199e-05
1.36554e-05
1.37177e-05
1.38052e-05
1.39169e-05
1.40514e-05
1.42079e-05
1.43855e-05
1.45831e-05
1.48e-05
1.50351e-05
1.52879e-05
1.55394e-05
1.57905e-05
1.60766e-05
1.63883e-05
1.67139e-05
1.70528e-05
1.74042e-05
1.77675e-05
1.81418e-05
1.81183e-05
1.80504e-05
1.79833e-05
1.79171e-05
1.7852e-05
1.77879e-05
1.77248e-05
1.76627e-05
1.76016e-05
1.75416e-05
1.74824e-05
1.7424e-05
1.73657e-05
1.73071e-05
1.7247e-05
1.71846e-05
1.71176e-05
1.70475e-05
1.69934e-05
2.11312e-05
2.13686e-05
2.15296e-05
2.16746e-05
2.18054e-05
2.19218e-05
2.20252e-05
2.2117e-05
2.21961e-05
2.22634e-05
2.23197e-05
2.23663e-05
2.2403e-05
2.24299e-05
2.24487e-05
2.24591e-05
2.2462e-05
2.24575e-05
2.24463e-05
2.24286e-05
2.24059e-05
2.23773e-05
2.23434e-05
2.23049e-05
2.22623e-05
2.22156e-05
2.21651e-05
2.21113e-05
2.20541e-05
2.19945e-05
2.19314e-05
2.18684e-05
2.17979e-05
2.17251e-05
2.16553e-05
2.15813e-05
2.15067e-05
2.11394e-05
1.99304e-05
1.88186e-05
1.78143e-05
1.69524e-05
1.61306e-05
1.53497e-05
1.46438e-05
1.40086e-05
1.37906e-05
1.43048e-05
1.4826e-05
1.53037e-05
1.57389e-05
1.61321e-05
1.64852e-05
1.68135e-05
1.70207e-05
1.70742e-05
1.70968e-05
1.70901e-05
1.70556e-05
1.69946e-05
1.69085e-05
1.67986e-05
1.66662e-05
1.65127e-05
1.63392e-05
1.6147e-05
1.59371e-05
1.57106e-05
1.54687e-05
1.52123e-05
1.49426e-05
1.46606e-05
1.43672e-05
1.42004e-05
1.42322e-05
1.42661e-05
1.43019e-05
1.43395e-05
1.45866e-05
1.49498e-05
1.52654e-05
1.5613e-05
1.60039e-05
1.6406e-05
1.68167e-05
1.7236e-05
1.76626e-05
1.7745e-05
1.76804e-05
1.76163e-05
1.75525e-05
1.7489e-05
1.74252e-05
1.73607e-05
1.72951e-05
1.72277e-05
1.71585e-05
1.70861e-05
1.70149e-05
1.69485e-05
2.11806e-05
2.1401e-05
2.15635e-05
2.17113e-05
2.1844e-05
2.19627e-05
2.20673e-05
2.21602e-05
2.22406e-05
2.23093e-05
2.23662e-05
2.24131e-05
2.24509e-05
2.24785e-05
2.24977e-05
2.25086e-05
2.25115e-05
2.25075e-05
2.24969e-05
2.24792e-05
2.24563e-05
2.24281e-05
2.23943e-05
2.23558e-05
2.23131e-05
2.22664e-05
2.22158e-05
2.21618e-05
2.21046e-05
2.20445e-05
2.19814e-05
2.19161e-05
2.18481e-05
2.17775e-05
2.1542e-05
2.00583e-05
1.86933e-05
1.7507e-05
1.64696e-05
1.54039e-05
1.50861e-05
1.57044e-05
1.65508e-05
1.73415e-05
1.80764e-05
1.87566e-05
1.93478e-05
1.99254e-05
2.04584e-05
2.09398e-05
2.13735e-05
2.17607e-05
2.21049e-05
2.24537e-05
2.25248e-05
2.25504e-05
2.2544e-05
2.25075e-05
2.24421e-05
2.23495e-05
2.2231e-05
2.20879e-05
2.19216e-05
2.17335e-05
2.15246e-05
2.12962e-05
2.10494e-05
2.07851e-05
2.05045e-05
2.02085e-05
1.9898e-05
1.95741e-05
1.92376e-05
1.88896e-05
1.85308e-05
1.8162e-05
1.77841e-05
1.74136e-05
1.70579e-05
1.66782e-05
1.62775e-05
1.62686e-05
1.63052e-05
1.63426e-05
1.63813e-05
1.64213e-05
1.64055e-05
1.63955e-05
1.64261e-05
1.64642e-05
1.65868e-05
1.70401e-05
1.74241e-05
1.73557e-05
1.72863e-05
1.72156e-05
1.7144e-05
1.7071e-05
1.7e-05
1.69349e-05
2.29035e-05
2.25289e-05
2.21477e-05
2.18047e-05
2.18844e-05
2.20046e-05
2.21101e-05
2.22035e-05
2.22847e-05
2.2354e-05
2.24118e-05
2.24589e-05
2.24969e-05
2.25254e-05
2.25444e-05
2.25558e-05
2.25588e-05
2.25548e-05
2.25444e-05
2.25269e-05
2.25037e-05
2.24754e-05
2.24418e-05
2.24032e-05
2.23601e-05
2.23132e-05
2.22626e-05
2.22086e-05
2.21512e-05
2.20909e-05
2.20276e-05
2.19618e-05
2.09677e-05
1.92933e-05
1.78287e-05
1.71865e-05
1.71909e-05
1.74855e-05
1.8612e-05
1.95933e-05
2.05518e-05
2.1497e-05
2.23712e-05
2.31785e-05
2.39216e-05
2.46031e-05
2.52259e-05
2.51776e-05
2.50734e-05
2.4969e-05
2.48643e-05
2.47596e-05
2.46657e-05
2.46e-05
2.44961e-05
2.43918e-05
2.42878e-05
2.4184e-05
2.40805e-05
2.39774e-05
2.38747e-05
2.37724e-05
2.36707e-05
2.35695e-05
2.34687e-05
2.33686e-05
2.3269e-05
2.31701e-05
2.30719e-05
2.29743e-05
2.28774e-05
2.27812e-05
2.26858e-05
2.25911e-05
2.24972e-05
2.24043e-05
2.23478e-05
2.22913e-05
2.20123e-05
2.1612e-05
2.12049e-05
2.07909e-05
2.03712e-05
1.99454e-05
1.95146e-05
1.90803e-05
1.86427e-05
1.85291e-05
1.8531e-05
1.85395e-05
1.85857e-05
1.86298e-05
1.85657e-05
1.85413e-05
1.85466e-05
1.85528e-05
1.85603e-05
1.8569e-05
1.8584e-05
1.84931e-05
2.73374e-05
2.70327e-05
2.66933e-05
2.63698e-05
2.6074e-05
2.58154e-05
2.55753e-05
2.53547e-05
2.51513e-05
2.49638e-05
2.47907e-05
2.46292e-05
2.44817e-05
2.43446e-05
2.42178e-05
2.41001e-05
2.39912e-05
2.389e-05
2.37967e-05
2.37097e-05
2.36285e-05
2.35534e-05
2.34836e-05
2.34186e-05
2.33579e-05
2.33012e-05
2.32482e-05
2.31989e-05
2.31529e-05
2.31097e-05
2.17565e-05
1.99055e-05
1.99302e-05
2.00526e-05
2.01178e-05
2.14283e-05
2.27802e-05
2.40562e-05
2.52284e-05
2.62408e-05
2.64656e-05
2.62974e-05
2.61296e-05
2.59621e-05
2.57951e-05
2.56289e-05
2.54632e-05
2.52985e-05
2.51345e-05
2.49717e-05
2.48512e-05
2.47431e-05
2.46685e-05
2.45771e-05
2.44715e-05
2.43665e-05
2.42621e-05
2.41586e-05
2.40558e-05
2.39538e-05
2.38527e-05
2.37523e-05
2.36528e-05
2.35541e-05
2.34562e-05
2.33592e-05
2.32631e-05
2.31677e-05
2.30733e-05
2.29798e-05
2.28871e-05
2.27954e-05
2.27045e-05
2.26146e-05
2.25256e-05
2.24393e-05
2.23544e-05
2.22677e-05
2.21837e-05
2.2097e-05
2.20111e-05
2.193e-05
2.18475e-05
2.17674e-05
2.16855e-05
2.16009e-05
2.15191e-05
2.14378e-05
2.13575e-05
2.12797e-05
2.11149e-05
2.06112e-05
2.01809e-05
2.02119e-05
2.02433e-05
2.02756e-05
2.03091e-05
2.08495e-05
2.1474e-05
2.22685e-05
3.59164e-05
3.57709e-05
3.55983e-05
3.5469e-05
3.49551e-05
3.44572e-05
3.40143e-05
3.36274e-05
3.32898e-05
3.29986e-05
3.27508e-05
3.25401e-05
3.23657e-05
3.22248e-05
3.21127e-05
3.20283e-05
3.19686e-05
3.19317e-05
3.19159e-05
3.19193e-05
3.19396e-05
3.19757e-05
3.20261e-05
3.20896e-05
3.21649e-05
3.22506e-05
3.09429e-05
2.85146e-05
2.62635e-05
2.42071e-05
2.24764e-05
2.19734e-05
2.27829e-05
2.43827e-05
2.58793e-05
2.66541e-05
2.6543e-05
2.64311e-05
2.63173e-05
2.62038e-05
2.60914e-05
2.5979e-05
2.58666e-05
2.57544e-05
2.56424e-05
2.55306e-05
2.54191e-05
2.53081e-05
2.51973e-05
2.50882e-05
2.498e-05
2.48865e-05
2.48327e-05
2.47267e-05
2.46203e-05
2.45145e-05
2.44094e-05
2.43051e-05
2.42016e-05
2.40988e-05
2.39968e-05
2.38957e-05
2.37953e-05
2.36957e-05
2.3597e-05
2.34991e-05
2.34021e-05
2.33059e-05
2.32106e-05
2.31162e-05
2.30227e-05
2.293e-05
2.28382e-05
2.27472e-05
2.26572e-05
2.25678e-05
2.24435e-05
2.23209e-05
2.21993e-05
2.19968e-05
2.19606e-05
2.18438e-05
2.17276e-05
2.16136e-05
2.14521e-05
2.12708e-05
2.12759e-05
2.11901e-05
2.11387e-05
2.10875e-05
2.10358e-05
2.09841e-05
2.09321e-05
2.13272e-05
2.18424e-05
2.23606e-05
2.29237e-05
2.35293e-05
2.40719e-05
2.46409e-05
4.60403e-05
4.60129e-05
4.59432e-05
4.59052e-05
4.58721e-05
4.58576e-05
4.58514e-05
4.58552e-05
4.58678e-05
4.5887e-05
4.59142e-05
4.59462e-05
4.59825e-05
4.60239e-05
4.60688e-05
4.61163e-05
4.61657e-05
4.6217e-05
4.62697e-05
4.63239e-05
4.63784e-05
4.64335e-05
4.64885e-05
4.35472e-05
4.05602e-05
3.77656e-05
3.52973e-05
3.29888e-05
3.07014e-05
2.85722e-05
2.77579e-05
2.77232e-05
2.65676e-05
2.64393e-05
2.63083e-05
2.61748e-05
2.6039e-05
2.59014e-05
2.57822e-05
2.57408e-05
2.5698e-05
2.56538e-05
2.56083e-05
2.55617e-05
2.55139e-05
2.54651e-05
2.54152e-05
2.53644e-05
2.53128e-05
2.52603e-05
2.51662e-05
2.51204e-05
2.50468e-05
2.49404e-05
2.48343e-05
2.47282e-05
2.46222e-05
2.45165e-05
2.44111e-05
2.43061e-05
2.42013e-05
2.40971e-05
2.39932e-05
2.38899e-05
2.3787e-05
2.36848e-05
2.3583e-05
2.34819e-05
2.33815e-05
2.32817e-05
2.31825e-05
2.3084e-05
2.29861e-05
2.2889e-05
2.27924e-05
2.26966e-05
2.26011e-05
2.2507e-05
2.24118e-05
2.23209e-05
2.22306e-05
2.2137e-05
2.20462e-05
2.19544e-05
2.18659e-05
2.1781e-05
2.16929e-05
2.16036e-05
2.15159e-05
2.19213e-05
2.2388e-05
2.28582e-05
2.33676e-05
2.39192e-05
2.44188e-05
2.4902e-05
2.5388e-05
2.53645e-05
2.52681e-05
2.51538e-05
5.03095e-05
5.08488e-05
5.13223e-05
5.17463e-05
5.21187e-05
5.24465e-05
5.27332e-05
5.29782e-05
5.31872e-05
5.33618e-05
5.35042e-05
5.36177e-05
5.37026e-05
5.37617e-05
5.37981e-05
5.38125e-05
5.38058e-05
5.378e-05
5.37364e-05
5.36768e-05
5.04838e-05
4.67697e-05
4.33037e-05
4.02694e-05
3.71825e-05
3.42509e-05
3.28856e-05
3.28091e-05
3.27284e-05
3.2644e-05
3.25561e-05
3.09881e-05
2.91801e-05
2.75827e-05
2.68092e-05
2.6719e-05
2.66265e-05
2.65321e-05
2.64359e-05
2.6338e-05
2.62387e-05
2.61382e-05
2.60365e-05
2.59339e-05
2.58304e-05
2.57262e-05
2.56214e-05
2.5516e-05
2.54103e-05
2.53042e-05
2.5238e-05
2.51834e-05
2.5077e-05
2.49703e-05
2.4864e-05
2.47573e-05
2.46517e-05
2.45457e-05
2.44399e-05
2.43344e-05
2.42293e-05
2.41246e-05
2.40204e-05
2.39167e-05
2.38135e-05
2.37109e-05
2.36088e-05
2.35074e-05
2.34065e-05
2.33063e-05
2.32067e-05
2.31078e-05
2.30095e-05
2.29119e-05
2.28149e-05
2.27186e-05
2.2623e-05
2.25281e-05
2.2434e-05
2.23405e-05
2.22481e-05
2.21556e-05
2.20644e-05
2.19732e-05
2.20099e-05
2.24521e-05
2.28988e-05
2.3349e-05
2.38438e-05
2.43751e-05
2.48469e-05
2.5313e-05
2.57824e-05
2.58022e-05
2.5704e-05
2.5606e-05
2.55087e-05
2.54121e-05
2.53151e-05
2.52008e-05
4.55202e-05
5.08862e-05
5.13619e-05
5.17884e-05
5.21635e-05
5.24923e-05
5.27801e-05
5.30269e-05
5.32366e-05
5.34123e-05
5.35552e-05
5.36698e-05
5.37553e-05
5.38154e-05
5.3851e-05
5.38659e-05
5.38597e-05
5.23783e-05
4.80203e-05
4.39318e-05
4.03695e-05
3.68164e-05
3.33843e-05
3.30898e-05
3.30327e-05
3.29703e-05
3.29031e-05
3.28311e-05
3.27546e-05
3.26741e-05
3.25897e-05
3.25017e-05
3.1968e-05
3.03096e-05
2.87737e-05
2.73981e-05
2.6656e-05
2.65614e-05
2.6465e-05
2.6367e-05
2.62675e-05
2.61668e-05
2.6065e-05
2.59621e-05
2.58585e-05
2.5754e-05
2.5649e-05
2.55434e-05
2.54374e-05
2.53476e-05
2.53089e-05
2.52084e-05
2.51014e-05
2.49938e-05
2.48873e-05
2.47782e-05
2.46747e-05
2.45714e-05
2.4463e-05
2.43577e-05
2.42517e-05
2.41468e-05
2.40421e-05
2.39381e-05
2.38345e-05
2.37316e-05
2.36292e-05
2.35273e-05
2.34261e-05
2.33255e-05
2.32256e-05
2.31263e-05
2.30276e-05
2.29296e-05
2.28322e-05
2.27356e-05
2.26396e-05
2.25443e-05
2.24498e-05
2.23557e-05
2.27197e-05
2.31334e-05
2.35532e-05
2.3987e-05
2.44674e-05
2.49583e-05
2.53999e-05
2.58458e-05
2.62957e-05
2.62509e-05
2.61492e-05
2.6048e-05
2.59476e-05
2.58478e-05
2.57487e-05
2.56501e-05
2.55359e-05
2.54116e-05
2.52889e-05
2.51532e-05
3.09879e-05
3.73149e-05
4.29273e-05
4.83842e-05
5.22114e-05
5.25411e-05
5.28283e-05
5.30756e-05
5.32857e-05
5.34609e-05
5.3604e-05
5.37176e-05
5.3804e-05
5.38639e-05
5.38993e-05
5.1134e-05
4.62791e-05
4.19036e-05
3.7981e-05
3.39519e-05
3.3201e-05
3.3169e-05
3.31306e-05
3.30857e-05
3.30344e-05
3.29772e-05
3.29145e-05
3.28467e-05
3.2774e-05
3.2697e-05
3.26158e-05
3.25309e-05
3.24421e-05
3.23498e-05
3.15425e-05
3.01141e-05
2.87916e-05
2.76031e-05
2.64915e-05
2.63905e-05
2.62908e-05
2.61899e-05
2.60878e-05
2.59848e-05
2.58809e-05
2.57762e-05
2.56709e-05
2.55651e-05
2.54595e-05
2.53185e-05
2.50408e-05
2.47506e-05
2.44769e-05
2.42191e-05
2.39761e-05
2.37482e-05
2.33786e-05
2.33328e-05
2.31449e-05
2.29695e-05
2.28059e-05
2.26537e-05
2.25123e-05
2.23814e-05
2.22606e-05
2.22361e-05
2.22352e-05
2.22366e-05
2.22401e-05
2.22455e-05
2.22529e-05
2.2262e-05
2.22728e-05
2.22852e-05
2.23434e-05
2.28151e-05
2.32971e-05
2.37886e-05
2.42892e-05
2.48336e-05
2.54097e-05
2.59409e-05
2.64728e-05
2.70106e-05
2.74252e-05
2.74363e-05
2.68898e-05
2.59932e-05
2.49992e-05
2.39532e-05
2.28806e-05
2.18157e-05
2.07615e-05
1.9719e-05
1.86895e-05
1.767e-05
1.66635e-05
1.56777e-05
1.47886e-05
1.31771e-05
2.1531e-05
2.45054e-05
2.94427e-05
3.39278e-05
3.7869e-05
4.20428e-05
4.61233e-05
4.98726e-05
5.33108e-05
5.35081e-05
5.36501e-05
5.37627e-05
5.38477e-05
5.08085e-05
4.54051e-05
4.06625e-05
3.62397e-05
3.31996e-05
3.31987e-05
3.31896e-05
3.31719e-05
3.31467e-05
3.31144e-05
3.30753e-05
3.30295e-05
3.29772e-05
3.29189e-05
3.28553e-05
3.27865e-05
3.27129e-05
3.26348e-05
3.22347e-05
3.15166e-05
3.08342e-05
3.01853e-05
2.95689e-05
2.84396e-05
2.67845e-05
2.52989e-05
2.44154e-05
2.35997e-05
2.286e-05
2.27799e-05
2.26806e-05
2.25925e-05
2.2515e-05
2.24477e-05
2.23903e-05
2.23177e-05
2.2211e-05
2.20674e-05
2.21121e-05
2.22836e-05
2.24462e-05
2.25987e-05
2.27453e-05
2.24377e-05
2.19737e-05
2.15603e-05
2.11869e-05
2.16121e-05
2.25592e-05
2.34621e-05
2.43218e-05
2.51438e-05
2.59256e-05
2.5499e-05
2.50106e-05
2.45515e-05
2.41208e-05
2.37172e-05
2.33397e-05
2.29871e-05
2.26623e-05
2.2407e-05
2.21896e-05
2.19335e-05
2.16975e-05
2.14807e-05
2.12825e-05
2.06518e-05
1.99936e-05
1.93398e-05
1.89898e-05
1.86887e-05
1.82788e-05
1.78795e-05
1.75856e-05
1.73212e-05
1.70612e-05
1.67876e-05
1.64659e-05
1.58242e-05
1.5184e-05
1.45461e-05
1.39114e-05
1.32962e-05
1.26938e-05
1.20922e-05
1.14062e-05
2.16733e-05
2.35672e-05
2.32892e-05
2.30359e-05
2.3879e-05
2.76087e-05
3.11715e-05
3.4519e-05
3.71853e-05
3.98929e-05
4.26363e-05
4.28762e-05
3.90356e-05
3.58126e-05
3.27729e-05
3.21356e-05
3.3123e-05
3.31407e-05
3.31487e-05
3.31478e-05
3.31374e-05
3.31186e-05
3.27545e-05
3.16699e-05
3.06398e-05
2.96616e-05
2.87329e-05
2.83892e-05
2.83835e-05
2.84305e-05
2.86969e-05
2.89912e-05
2.94203e-05
3.04351e-05
3.14001e-05
3.23164e-05
3.48763e-05
3.80898e-05
3.71608e-05
3.4696e-05
3.23616e-05
3.01337e-05
2.80333e-05
2.60238e-05
2.41157e-05
2.23054e-05
2.06566e-05
1.94398e-05
1.83945e-05
1.74491e-05
1.66731e-05
1.59577e-05
1.52662e-05
1.45951e-05
1.39609e-05
1.33002e-05
1.26865e-05
1.21484e-05
1.16139e-05
1.11734e-05
1.10588e-05
1.08371e-05
1.04083e-05
1.00106e-05
9.64257e-06
8.76957e-06
8.18539e-06
7.85731e-06
7.5713e-06
7.32278e-06
7.1099e-06
6.93039e-06
6.78174e-06
6.6613e-06
6.55625e-06
6.42519e-06
6.39686e-06
6.46799e-06
6.63108e-06
6.87554e-06
7.1893e-06
7.55858e-06
8.03484e-06
8.5833e-06
9.07522e-06
9.57562e-06
9.66231e-06
9.47672e-06
9.21086e-06
8.89711e-06
8.54694e-06
8.09934e-06
7.70732e-06
7.41097e-06
7.13609e-06
6.73929e-06
6.4338e-06
6.24173e-06
6.17532e-06
7.11462e-06
2.18142e-05
2.37371e-05
2.3447e-05
2.31827e-05
2.29305e-05
2.26943e-05
2.24689e-05
2.22564e-05
2.20539e-05
2.44564e-05
1.99279e-05
1.54561e-05
1.26273e-05
1.21355e-05
1.37357e-05
1.53684e-05
1.71036e-05
1.7517e-05
1.722e-05
1.68871e-05
1.71328e-05
1.79687e-05
1.96126e-05
2.19745e-05
2.39936e-05
2.58883e-05
2.84051e-05
2.73082e-05
2.54584e-05
2.36841e-05
2.21397e-05
2.09546e-05
2.00934e-05
1.92791e-05
1.84645e-05
1.78223e-05
1.76457e-05
1.61059e-05
1.54713e-05
1.4358e-05
1.3134e-05
1.19721e-05
1.04331e-05
9.1374e-06
8.07737e-06
7.3544e-06
6.87459e-06
6.66113e-06
6.78785e-06
7.10019e-06
7.53045e-06
8.11607e-06
8.85378e-06
9.63829e-06
1.04427e-05
1.12491e-05
1.16607e-05
1.19109e-05
1.21723e-05
1.244e-05
1.3405e-05
1.4852e-05
1.62587e-05
1.76161e-05
1.89189e-05
2.01641e-05
2.02089e-05
2.01687e-05
2.01326e-05
2.01005e-05
2.00721e-05
2.00473e-05
2.0026e-05
1.99652e-05
1.99034e-05
1.98421e-05
1.97815e-05
1.97215e-05
1.96619e-05
1.96027e-05
1.9544e-05
1.94856e-05
1.94175e-05
1.96443e-05
1.99097e-05
2.01762e-05
2.04436e-05
2.07117e-05
2.09802e-05
2.12409e-05
2.14777e-05
2.16554e-05
2.14904e-05
2.13116e-05
2.11182e-05
2.09345e-05
2.0688e-05
2.04308e-05
2.01512e-05
2.00354e-05
2.19534e-05
2.39044e-05
2.36023e-05
2.33272e-05
2.30641e-05
2.28184e-05
2.2584e-05
2.23626e-05
1.8477e-05
1.02625e-05
7.32749e-06
7.58002e-06
7.50249e-06
8.05437e-06
9.08924e-06
9.67921e-06
8.3378e-06
8.32207e-06
9.16472e-06
1.10664e-05
1.3085e-05
1.116e-05
9.74176e-06
9.2255e-06
8.71708e-06
8.34161e-06
7.84581e-06
9.00192e-06
8.98685e-06
8.53165e-06
8.43933e-06
8.84213e-06
9.64971e-06
1.11733e-05
1.29522e-05
1.50022e-05
1.86672e-05
2.28858e-05
2.31895e-05
2.28905e-05
2.26078e-05
2.2341e-05
2.20895e-05
2.18616e-05
2.14094e-05
2.06889e-05
2.00841e-05
1.98883e-05
1.98061e-05
1.973e-05
1.96553e-05
1.95861e-05
1.95272e-05
1.94737e-05
1.94243e-05
1.93791e-05
1.9338e-05
1.93008e-05
1.9227e-05
1.91284e-05
1.90358e-05
1.89489e-05
1.88676e-05
1.87914e-05
1.87203e-05
1.86541e-05
1.85923e-05
1.8535e-05
1.84819e-05
1.84326e-05
1.83872e-05
1.83455e-05
1.83078e-05
1.8274e-05
1.82428e-05
1.82144e-05
1.81889e-05
1.81662e-05
1.81462e-05
1.81287e-05
1.81135e-05
1.81006e-05
1.80898e-05
1.80809e-05
1.80741e-05
1.80691e-05
1.8066e-05
1.80647e-05
1.80652e-05
1.80625e-05
1.80231e-05
1.79863e-05
1.79523e-05
1.79251e-05
1.79007e-05
1.81451e-05
1.83894e-05
1.86357e-05
1.88677e-05
1.90584e-05
2.20913e-05
2.40688e-05
2.37548e-05
2.3469e-05
2.31953e-05
2.29396e-05
2.26964e-05
1.43253e-05
7.45212e-06
7.83045e-06
8.55297e-06
7.91656e-06
7.907e-06
9.53872e-06
1.28777e-05
1.33129e-05
1.00355e-05
8.343e-06
7.43196e-06
6.76781e-06
6.88769e-06
1.02678e-05
1.13437e-05
1.38036e-05
1.67629e-05
1.98739e-05
2.37947e-05
2.43101e-05
2.41786e-05
2.40305e-05
2.37181e-05
2.34262e-05
2.31499e-05
2.28909e-05
2.26851e-05
2.24907e-05
2.22176e-05
2.19642e-05
2.17736e-05
2.15962e-05
2.14297e-05
2.12728e-05
2.11269e-05
2.06947e-05
1.99847e-05
1.94179e-05
1.92196e-05
1.90325e-05
1.88558e-05
1.86885e-05
1.8531e-05
1.84333e-05
1.83437e-05
1.82555e-05
1.81683e-05
1.80821e-05
1.79969e-05
1.79128e-05
1.78296e-05
1.77474e-05
1.76661e-05
1.75856e-05
1.75061e-05
1.74274e-05
1.73495e-05
1.72725e-05
1.71962e-05
1.71206e-05
1.70458e-05
1.69717e-05
1.68984e-05
1.68258e-05
1.67539e-05
1.67244e-05
1.66996e-05
1.66776e-05
1.66585e-05
1.66419e-05
1.66277e-05
1.66159e-05
1.66064e-05
1.65991e-05
1.65939e-05
1.65907e-05
1.65893e-05
1.65891e-05
1.65459e-05
1.65054e-05
1.6468e-05
1.64363e-05
1.64073e-05
1.63778e-05
1.63508e-05
1.6327e-05
1.63513e-05
1.638e-05
1.64025e-05
1.64249e-05
1.64476e-05
1.64851e-05
2.22277e-05
2.42301e-05
2.39045e-05
2.36078e-05
2.3324e-05
2.08278e-05
1.09534e-05
8.0669e-06
7.71933e-06
1.17146e-05
1.77884e-05
1.88415e-05
1.46326e-05
1.29507e-05
1.10437e-05
9.30467e-06
1.14713e-05
1.28796e-05
1.61078e-05
2.08931e-05
2.52964e-05
2.50823e-05
2.50547e-05
2.5128e-05
2.51486e-05
2.47409e-05
2.43623e-05
2.40633e-05
2.37682e-05
2.33371e-05
2.2944e-05
2.2662e-05
2.23954e-05
2.21443e-05
2.19031e-05
2.1513e-05
2.11434e-05
2.10071e-05
2.08818e-05
2.07583e-05
2.06381e-05
2.05188e-05
2.0083e-05
1.94314e-05
1.90674e-05
1.89689e-05
1.88718e-05
1.87755e-05
1.86809e-05
1.85874e-05
1.84949e-05
1.84039e-05
1.83139e-05
1.82249e-05
1.81373e-05
1.80507e-05
1.7965e-05
1.78804e-05
1.77969e-05
1.77143e-05
1.76326e-05
1.75518e-05
1.74719e-05
1.73929e-05
1.73147e-05
1.72374e-05
1.71608e-05
1.7085e-05
1.701e-05
1.69357e-05
1.68622e-05
1.67894e-05
1.67172e-05
1.66457e-05
1.6575e-05
1.65049e-05
1.64355e-05
1.63667e-05
1.62984e-05
1.62308e-05
1.61637e-05
1.60971e-05
1.59941e-05
1.58817e-05
1.5771e-05
1.56648e-05
1.55609e-05
1.54556e-05
1.53519e-05
1.52546e-05
1.51963e-05
1.51386e-05
1.50815e-05
1.5025e-05
1.49691e-05
1.49785e-05
1.50034e-05
1.50299e-05
1.50568e-05
1.5074e-05
2.23628e-05
2.43882e-05
2.40512e-05
2.43698e-05
2.3058e-05
1.73847e-05
1.66534e-05
2.59808e-05
2.34444e-05
1.97422e-05
1.5697e-05
1.16516e-05
1.3044e-05
1.45634e-05
2.15742e-05
2.65393e-05
2.62772e-05
2.60597e-05
2.61575e-05
2.62504e-05
2.63038e-05
2.58564e-05
2.54685e-05
2.50257e-05
2.44355e-05
2.39053e-05
2.35324e-05
2.31573e-05
2.26032e-05
2.20984e-05
2.19478e-05
2.18007e-05
2.1657e-05
2.15162e-05
2.13786e-05
2.12436e-05
2.11113e-05
2.09815e-05
2.0855e-05
2.07297e-05
2.06075e-05
2.01604e-05
1.94878e-05
1.91415e-05
1.90407e-05
1.89408e-05
1.88429e-05
1.87461e-05
1.86505e-05
1.85564e-05
1.84634e-05
1.83715e-05
1.82811e-05
1.81917e-05
1.81035e-05
1.80164e-05
1.79304e-05
1.78454e-05
1.77614e-05
1.76784e-05
1.75964e-05
1.75153e-05
1.74351e-05
1.73558e-05
1.72773e-05
1.71997e-05
1.71228e-05
1.70468e-05
1.69716e-05
1.68972e-05
1.68236e-05
1.67507e-05
1.66785e-05
1.66071e-05
1.65363e-05
1.6466e-05
1.63964e-05
1.63274e-05
1.62393e-05
1.61213e-05
1.60053e-05
1.58927e-05
1.57831e-05
1.56732e-05
1.55644e-05
1.5458e-05
1.53976e-05
1.53377e-05
1.52785e-05
1.52198e-05
1.51617e-05
1.51042e-05
1.50473e-05
1.4991e-05
1.49354e-05
1.48804e-05
1.48258e-05
1.47723e-05
1.47183e-05
1.4663e-05
2.24967e-05
2.86586e-05
3.54683e-05
3.60924e-05
3.59671e-05
3.10176e-05
2.6346e-05
1.64206e-05
1.45995e-05
1.5254e-05
2.25256e-05
2.77806e-05
2.74624e-05
2.71587e-05
2.71908e-05
2.73034e-05
2.74248e-05
2.74185e-05
2.69302e-05
2.63408e-05
2.55844e-05
2.48974e-05
2.42524e-05
2.35402e-05
2.2912e-05
2.2738e-05
2.25682e-05
2.24037e-05
2.22431e-05
2.20866e-05
2.19338e-05
2.17843e-05
2.16385e-05
2.14955e-05
2.13556e-05
2.12184e-05
2.10848e-05
2.0953e-05
2.08245e-05
2.06987e-05
2.02547e-05
1.95628e-05
1.9216e-05
1.91123e-05
1.90107e-05
1.89102e-05
1.88111e-05
1.87137e-05
1.86175e-05
1.85225e-05
1.8429e-05
1.83366e-05
1.82455e-05
1.81556e-05
1.8067e-05
1.79793e-05
1.7893e-05
1.78076e-05
1.77233e-05
1.76399e-05
1.75576e-05
1.74762e-05
1.73957e-05
1.73161e-05
1.72373e-05
1.71595e-05
1.70824e-05
1.70063e-05
1.69308e-05
1.68562e-05
1.67824e-05
1.67094e-05
1.66371e-05
1.65657e-05
1.64949e-05
1.63783e-05
1.62562e-05
1.61365e-05
1.602e-05
1.59052e-05
1.5791e-05
1.56787e-05
1.56049e-05
1.55429e-05
1.54814e-05
1.54206e-05
1.53603e-05
1.53006e-05
1.52416e-05
1.51831e-05
1.51253e-05
1.5068e-05
1.50114e-05
1.49554e-05
1.48999e-05
1.48451e-05
1.47908e-05
1.47376e-05
1.46839e-05
1.46289e-05
4.09095e-05
5.19647e-05
5.71934e-05
3.96929e-05
2.19156e-05
1.38243e-05
1.71777e-05
2.68042e-05
2.89256e-05
2.85513e-05
2.81943e-05
2.8282e-05
2.84078e-05
2.86638e-05
2.88411e-05
2.81577e-05
2.73845e-05
2.64442e-05
2.53456e-05
2.44733e-05
2.3681e-05
2.34798e-05
2.32846e-05
2.30959e-05
2.29127e-05
2.27354e-05
2.25626e-05
2.23945e-05
2.22309e-05
2.20713e-05
2.19163e-05
2.17646e-05
2.16165e-05
2.14714e-05
2.13299e-05
2.11904e-05
2.10548e-05
2.0922e-05
2.07909e-05
2.03699e-05
1.96546e-05
1.9291e-05
1.91852e-05
1.90806e-05
1.89777e-05
1.88767e-05
1.87768e-05
1.86784e-05
1.85816e-05
1.8486e-05
1.83917e-05
1.82988e-05
1.82072e-05
1.81168e-05
1.80277e-05
1.79397e-05
1.78528e-05
1.77671e-05
1.76824e-05
1.75988e-05
1.75161e-05
1.74345e-05
1.73537e-05
1.72738e-05
1.71948e-05
1.71168e-05
1.70396e-05
1.69633e-05
1.68879e-05
1.68132e-05
1.67393e-05
1.66546e-05
1.65258e-05
1.6399e-05
1.6275e-05
1.61538e-05
1.60338e-05
1.59156e-05
1.5819e-05
1.57546e-05
1.56908e-05
1.56276e-05
1.5565e-05
1.55031e-05
1.54418e-05
1.53811e-05
1.53211e-05
1.52617e-05
1.52028e-05
1.51446e-05
1.5087e-05
1.503e-05
1.49736e-05
1.49179e-05
1.48627e-05
1.48082e-05
1.47541e-05
1.47011e-05
1.46476e-05
1.4593e-05
6.35374e-05
5.10361e-05
2.21788e-05
1.69734e-05
2.42776e-05
3.02952e-05
2.98486e-05
2.94251e-05
2.93337e-05
2.94691e-05
2.97948e-05
3.01207e-05
2.97307e-05
2.88894e-05
2.74725e-05
2.61031e-05
2.50865e-05
2.43565e-05
2.41282e-05
2.39082e-05
2.36956e-05
2.34899e-05
2.32905e-05
2.30977e-05
2.29109e-05
2.27299e-05
2.25542e-05
2.23827e-05
2.22163e-05
2.20538e-05
2.18959e-05
2.17417e-05
2.15916e-05
2.14441e-05
2.13006e-05
2.116e-05
2.10214e-05
2.08876e-05
2.05046e-05
1.97655e-05
1.93677e-05
1.92585e-05
1.91513e-05
1.90461e-05
1.89422e-05
1.88401e-05
1.87397e-05
1.86406e-05
1.85429e-05
1.84468e-05
1.8352e-05
1.82584e-05
1.81662e-05
1.80754e-05
1.79858e-05
1.78974e-05
1.78101e-05
1.7724e-05
1.7639e-05
1.75551e-05
1.74722e-05
1.73901e-05
1.73091e-05
1.72291e-05
1.71499e-05
1.70717e-05
1.69944e-05
1.69179e-05
1.68182e-05
1.66839e-05
1.65519e-05
1.64225e-05
1.6296e-05
1.61712e-05
1.60483e-05
1.59738e-05
1.59073e-05
1.58416e-05
1.57765e-05
1.57122e-05
1.56485e-05
1.55856e-05
1.55232e-05
1.54615e-05
1.54003e-05
1.53398e-05
1.52799e-05
1.52207e-05
1.51621e-05
1.51041e-05
1.50468e-05
1.49901e-05
1.49339e-05
1.48784e-05
1.48235e-05
1.47693e-05
1.47155e-05
1.46628e-05
1.46096e-05
1.45553e-05
2.46187e-05
1.25967e-05
2.89668e-05
3.14104e-05
3.09009e-05
3.04192e-05
3.04939e-05
3.07867e-05
3.11718e-05
3.13885e-05
3.07696e-05
2.92195e-05
2.75368e-05
2.61685e-05
2.51405e-05
2.48781e-05
2.46256e-05
2.4383e-05
2.41493e-05
2.39242e-05
2.37069e-05
2.34969e-05
2.32936e-05
2.30964e-05
2.29061e-05
2.27212e-05
2.25426e-05
2.23682e-05
2.2199e-05
2.20339e-05
2.18732e-05
2.1716e-05
2.15637e-05
2.14146e-05
2.12679e-05
2.11262e-05
2.09862e-05
2.06614e-05
1.98974e-05
1.94453e-05
1.93332e-05
1.92233e-05
1.91149e-05
1.90086e-05
1.89041e-05
1.8801e-05
1.86997e-05
1.86e-05
1.85017e-05
1.84048e-05
1.83095e-05
1.82155e-05
1.81227e-05
1.80314e-05
1.79414e-05
1.78525e-05
1.77648e-05
1.76784e-05
1.75932e-05
1.75089e-05
1.74257e-05
1.73434e-05
1.72622e-05
1.7182e-05
1.71028e-05
1.6995e-05
1.68546e-05
1.67163e-05
1.65805e-05
1.64479e-05
1.63178e-05
1.62016e-05
1.61323e-05
1.60638e-05
1.59961e-05
1.59291e-05
1.58628e-05
1.57972e-05
1.57322e-05
1.56678e-05
1.56042e-05
1.55414e-05
1.54792e-05
1.54177e-05
1.53568e-05
1.52966e-05
1.52369e-05
1.51779e-05
1.51195e-05
1.50618e-05
1.50047e-05
1.49482e-05
1.48924e-05
1.48371e-05
1.47825e-05
1.47284e-05
1.46749e-05
1.46224e-05
1.45695e-05
1.45156e-05
2.44175e-05
2.94392e-05
3.0838e-05
3.15525e-05
3.1638e-05
3.20563e-05
3.24851e-05
3.26238e-05
3.17005e-05
2.98444e-05
2.79529e-05
2.64939e-05
2.57533e-05
2.54612e-05
2.51808e-05
2.49118e-05
2.46535e-05
2.44054e-05
2.41665e-05
2.39364e-05
2.37147e-05
2.35004e-05
2.32933e-05
2.3092e-05
2.28981e-05
2.27097e-05
2.25276e-05
2.23505e-05
2.21784e-05
2.20104e-05
2.18474e-05
2.16883e-05
2.15326e-05
2.13822e-05
2.12336e-05
2.10889e-05
2.08414e-05
2.00496e-05
1.95249e-05
1.94097e-05
1.92963e-05
1.91852e-05
1.9076e-05
1.89685e-05
1.8863e-05
1.87594e-05
1.86572e-05
1.85567e-05
1.84578e-05
1.83604e-05
1.82644e-05
1.81699e-05
1.80768e-05
1.79849e-05
1.78943e-05
1.78052e-05
1.77172e-05
1.76304e-05
1.75447e-05
1.74602e-05
1.73768e-05
1.72943e-05
1.71869e-05
1.70398e-05
1.68945e-05
1.67515e-05
1.66124e-05
1.64766e-05
1.63673e-05
1.62957e-05
1.62248e-05
1.61547e-05
1.60854e-05
1.60169e-05
1.59491e-05
1.58821e-05
1.5816e-05
1.57505e-05
1.56857e-05
1.56216e-05
1.55582e-05
1.54954e-05
1.54333e-05
1.53719e-05
1.53112e-05
1.52512e-05
1.51919e-05
1.51332e-05
1.50751e-05
1.50176e-05
1.49607e-05
1.49045e-05
1.48489e-05
1.47939e-05
1.47396e-05
1.46858e-05
1.46325e-05
1.45803e-05
1.45276e-05
1.4474e-05
2.71275e-05
2.96081e-05
3.15554e-05
3.32429e-05
3.37178e-05
3.38491e-05
3.29502e-05
3.09095e-05
2.87787e-05
2.7111e-05
2.64446e-05
2.6117e-05
2.58036e-05
2.55045e-05
2.52178e-05
2.49429e-05
2.46788e-05
2.44251e-05
2.41813e-05
2.39463e-05
2.37201e-05
2.35009e-05
2.329e-05
2.3085e-05
2.28874e-05
2.26958e-05
2.251e-05
2.23294e-05
2.21546e-05
2.19841e-05
2.18179e-05
2.16574e-05
2.14994e-05
2.13459e-05
2.11968e-05
2.10313e-05
2.02244e-05
1.96067e-05
1.94877e-05
1.93712e-05
1.92569e-05
1.91444e-05
1.90342e-05
1.8926e-05
1.88195e-05
1.87149e-05
1.86121e-05
1.85109e-05
1.84113e-05
1.83134e-05
1.82169e-05
1.81218e-05
1.80282e-05
1.79359e-05
1.7845e-05
1.77554e-05
1.76671e-05
1.75801e-05
1.74941e-05
1.73969e-05
1.72421e-05
1.70891e-05
1.69378e-05
1.67912e-05
1.66488e-05
1.65385e-05
1.64642e-05
1.63908e-05
1.63182e-05
1.62465e-05
1.61756e-05
1.61056e-05
1.60365e-05
1.5968e-05
1.59004e-05
1.58334e-05
1.57672e-05
1.57018e-05
1.56371e-05
1.55732e-05
1.551e-05
1.54476e-05
1.53857e-05
1.53245e-05
1.52639e-05
1.52041e-05
1.51449e-05
1.50865e-05
1.50286e-05
1.49715e-05
1.49149e-05
1.48589e-05
1.48035e-05
1.47488e-05
1.46947e-05
1.46413e-05
1.45883e-05
1.45363e-05
1.4484e-05
1.44307e-05
2.75386e-05
3.11441e-05
3.36715e-05
3.50691e-05
3.45591e-05
3.24826e-05
3.00814e-05
2.80546e-05
2.72286e-05
2.68589e-05
2.65066e-05
2.61717e-05
2.58514e-05
2.55455e-05
2.52524e-05
2.49712e-05
2.47011e-05
2.44418e-05
2.41931e-05
2.39532e-05
2.37224e-05
2.34986e-05
2.32833e-05
2.30751e-05
2.28737e-05
2.26787e-05
2.24899e-05
2.23061e-05
2.21275e-05
2.19552e-05
2.17861e-05
2.16226e-05
2.14638e-05
2.13074e-05
2.11561e-05
2.04243e-05
1.96932e-05
1.95681e-05
1.94483e-05
1.93302e-05
1.92146e-05
1.91012e-05
1.89898e-05
1.88807e-05
1.87734e-05
1.8668e-05
1.85643e-05
1.84625e-05
1.83623e-05
1.82637e-05