/*--------------------------------*- C++ -*----------------------------------*\
| =========                 |                                                 |
| \\      /  F ield         | foam-extend: Open Source CFD                    |
|  \\    /   O peration     | Version:     4.1                                |
|   \\  /    A nd           | Web:         http://www.foam-extend.org         |
|    \\/     M anipulation  |                                                 |
\*---------------------------------------------------------------------------*/
FoamFile
{
    version     2.0;
    format      ascii;
    class       volScalarField;
    location    "10";
    object      sigmaEq;
}
// * * * * * * * * * * * * * * * * * * * * * * * * * * * * * * * * * * * * * //

dimensions      [1 -1 -2 0 0 0 0];

internalField   nonuniform List<scalar> 
100000
(
4.85413e+06
4.91893e+06
4.95447e+06
4.9864e+06
5.01521e+06
5.04099e+06
5.06399e+06
5.08407e+06
5.1014e+06
5.11618e+06
5.12869e+06
5.13876e+06
5.14659e+06
5.15244e+06
5.15649e+06
5.1585e+06
5.15878e+06
5.1575e+06
5.15468e+06
5.15055e+06
5.1451e+06
5.13822e+06
5.13042e+06
5.1215e+06
5.11159e+06
5.1007e+06
5.089e+06
5.0765e+06
5.0633e+06
5.04936e+06
5.03493e+06
5.01935e+06
5.00436e+06
4.98891e+06
4.97192e+06
4.95505e+06
4.93765e+06
4.92004e+06
4.90212e+06
4.88396e+06
4.86558e+06
4.84697e+06
4.82815e+06
4.80917e+06
4.79007e+06
4.77087e+06
4.66395e+06
4.52967e+06
4.40912e+06
4.3016e+06
4.20635e+06
4.12282e+06
4.05022e+06
3.98812e+06
3.96574e+06
3.95e+06
3.91611e+06
3.89058e+06
3.87302e+06
3.86304e+06
3.86022e+06
3.8642e+06
3.87467e+06
3.89127e+06
3.91372e+06
3.94172e+06
3.97506e+06
4.01349e+06
4.05673e+06
4.10459e+06
4.15683e+06
4.21324e+06
4.27364e+06
4.30433e+06
4.28729e+06
4.27043e+06
4.25374e+06
4.23723e+06
4.22092e+06
4.2048e+06
4.18887e+06
4.17313e+06
4.15762e+06
4.14235e+06
4.12733e+06
4.11258e+06
4.09811e+06
4.08393e+06
4.07009e+06
4.05661e+06
4.04353e+06
4.03089e+06
4.01881e+06
4.00732e+06
3.99656e+06
3.98653e+06
3.97711e+06
3.96883e+06
3.95724e+06
3.95125e+06
4.8654e+06
4.92464e+06
4.96109e+06
4.99374e+06
5.02343e+06
5.04972e+06
5.07327e+06
5.09399e+06
5.11174e+06
5.12699e+06
5.13979e+06
5.15026e+06
5.15836e+06
5.16443e+06
5.16864e+06
5.171e+06
5.17145e+06
5.17035e+06
5.16761e+06
5.16353e+06
5.15823e+06
5.15147e+06
5.14367e+06
5.13482e+06
5.12495e+06
5.11411e+06
5.10243e+06
5.08997e+06
5.07677e+06
5.06294e+06
5.04847e+06
5.0334e+06
5.0222e+06
5.00166e+06
4.98513e+06
4.9682e+06
4.95089e+06
4.93324e+06
4.91531e+06
4.8971e+06
4.87867e+06
4.72259e+06
4.51587e+06
4.32716e+06
4.15556e+06
4.00186e+06
3.86864e+06
3.74461e+06
3.63056e+06
3.52952e+06
3.44057e+06
3.36323e+06
3.29661e+06
3.23909e+06
3.24282e+06
3.20668e+06
3.17869e+06
3.15874e+06
3.14643e+06
3.14132e+06
3.14305e+06
3.15126e+06
3.16563e+06
3.18582e+06
3.21158e+06
3.24262e+06
3.27874e+06
3.31973e+06
3.36534e+06
3.41539e+06
3.46965e+06
3.52797e+06
3.58602e+06
3.64396e+06
3.70999e+06
3.78191e+06
3.85706e+06
3.93527e+06
4.01635e+06
4.10019e+06
4.18657e+06
4.18116e+06
4.16547e+06
4.14998e+06
4.13473e+06
4.1197e+06
4.10489e+06
4.09033e+06
4.07601e+06
4.06191e+06
4.04805e+06
4.0344e+06
4.02091e+06
4.00747e+06
3.99395e+06
3.98007e+06
3.96567e+06
3.95022e+06
3.93404e+06
3.92156e+06
4.87643e+06
4.93122e+06
4.96837e+06
5.00184e+06
5.03201e+06
5.05889e+06
5.08273e+06
5.10391e+06
5.12217e+06
5.13771e+06
5.1507e+06
5.16144e+06
5.16992e+06
5.17612e+06
5.18047e+06
5.18286e+06
5.18353e+06
5.1825e+06
5.17991e+06
5.17583e+06
5.17059e+06
5.16399e+06
5.15616e+06
5.14728e+06
5.13745e+06
5.12668e+06
5.11502e+06
5.10261e+06
5.08942e+06
5.07564e+06
5.0611e+06
5.04655e+06
5.03028e+06
5.01349e+06
4.99737e+06
4.98031e+06
4.96309e+06
4.87833e+06
4.59933e+06
4.34275e+06
4.11098e+06
3.91209e+06
3.72245e+06
3.54225e+06
3.37934e+06
3.23276e+06
3.18245e+06
3.30111e+06
3.42139e+06
3.53163e+06
3.63205e+06
3.72279e+06
3.80428e+06
3.88005e+06
3.92785e+06
3.9402e+06
3.94541e+06
3.94388e+06
3.93591e+06
3.92182e+06
3.90196e+06
3.8766e+06
3.84605e+06
3.81063e+06
3.77058e+06
3.72623e+06
3.6778e+06
3.62552e+06
3.5697e+06
3.51053e+06
3.4483e+06
3.38321e+06
3.31551e+06
3.27701e+06
3.28435e+06
3.29217e+06
3.30044e+06
3.30912e+06
3.36614e+06
3.44995e+06
3.52278e+06
3.60299e+06
3.69322e+06
3.78601e+06
3.88079e+06
3.97754e+06
4.07598e+06
4.09501e+06
4.0801e+06
4.0653e+06
4.05059e+06
4.03591e+06
4.02119e+06
4.00631e+06
3.99118e+06
3.97562e+06
3.95965e+06
3.94294e+06
3.92651e+06
3.9112e+06
4.88782e+06
4.93869e+06
4.9762e+06
5.0103e+06
5.04092e+06
5.06831e+06
5.09245e+06
5.11388e+06
5.13244e+06
5.1483e+06
5.16143e+06
5.17226e+06
5.18098e+06
5.18735e+06
5.19178e+06
5.19428e+06
5.19497e+06
5.19405e+06
5.19159e+06
5.18751e+06
5.18222e+06
5.17571e+06
5.16792e+06
5.15903e+06
5.14917e+06
5.13839e+06
5.12672e+06
5.11426e+06
5.10106e+06
5.08718e+06
5.07264e+06
5.05757e+06
5.04186e+06
5.02558e+06
4.97122e+06
4.62883e+06
4.31384e+06
4.04007e+06
3.80068e+06
3.55474e+06
3.48141e+06
3.62409e+06
3.81942e+06
4.00189e+06
4.17149e+06
4.32845e+06
4.46487e+06
4.59816e+06
4.72116e+06
4.83225e+06
4.93235e+06
5.0217e+06
5.10114e+06
5.18161e+06
5.19804e+06
5.20393e+06
5.20247e+06
5.19403e+06
5.17895e+06
5.15757e+06
5.13022e+06
5.09722e+06
5.05883e+06
5.01541e+06
4.96721e+06
4.91451e+06
4.85755e+06
4.79655e+06
4.7318e+06
4.66349e+06
4.59185e+06
4.5171e+06
4.43946e+06
4.35913e+06
4.27633e+06
4.19122e+06
4.10401e+06
4.01852e+06
3.93643e+06
3.84881e+06
3.75633e+06
3.75429e+06
3.76274e+06
3.77136e+06
3.78031e+06
3.78954e+06
3.78589e+06
3.78357e+06
3.79063e+06
3.79942e+06
3.82773e+06
3.93233e+06
4.02095e+06
4.00517e+06
3.98915e+06
3.97283e+06
3.95632e+06
3.93947e+06
3.92307e+06
3.90805e+06
5.28542e+06
5.19898e+06
5.11101e+06
5.03184e+06
5.05025e+06
5.07799e+06
5.10233e+06
5.12389e+06
5.14262e+06
5.15863e+06
5.17196e+06
5.18281e+06
5.1916e+06
5.19818e+06
5.20256e+06
5.20518e+06
5.20588e+06
5.20494e+06
5.20254e+06
5.19852e+06
5.19315e+06
5.18663e+06
5.17887e+06
5.16997e+06
5.16003e+06
5.14921e+06
5.13752e+06
5.12505e+06
5.11182e+06
5.0979e+06
5.0833e+06
5.06811e+06
4.83869e+06
4.4523e+06
4.11431e+06
3.96611e+06
3.96713e+06
4.03511e+06
4.29507e+06
4.52152e+06
4.74271e+06
4.96085e+06
5.16258e+06
5.34888e+06
5.52036e+06
5.67763e+06
5.82136e+06
5.81021e+06
5.78617e+06
5.76208e+06
5.73792e+06
5.71376e+06
5.69208e+06
5.67693e+06
5.65296e+06
5.62889e+06
5.60487e+06
5.58091e+06
5.55704e+06
5.53325e+06
5.50955e+06
5.48595e+06
5.46247e+06
5.43911e+06
5.41586e+06
5.39276e+06
5.36978e+06
5.34696e+06
5.32428e+06
5.30176e+06
5.2794e+06
5.25721e+06
5.23518e+06
5.21333e+06
5.19166e+06
5.17022e+06
5.15719e+06
5.14415e+06
5.07975e+06
4.98739e+06
4.89345e+06
4.79789e+06
4.70105e+06
4.60279e+06
4.50336e+06
4.40316e+06
4.30215e+06
4.27594e+06
4.27639e+06
4.27833e+06
4.289e+06
4.29918e+06
4.28438e+06
4.27876e+06
4.27999e+06
4.28141e+06
4.28314e+06
4.28515e+06
4.28861e+06
4.26764e+06
6.30864e+06
6.23832e+06
6.15998e+06
6.08534e+06
6.01709e+06
5.95739e+06
5.902e+06
5.85108e+06
5.80415e+06
5.76087e+06
5.72093e+06
5.68366e+06
5.64962e+06
5.61798e+06
5.58872e+06
5.56155e+06
5.53643e+06
5.51308e+06
5.49154e+06
5.47147e+06
5.45274e+06
5.43539e+06
5.41928e+06
5.4043e+06
5.39028e+06
5.37719e+06
5.36497e+06
5.35359e+06
5.34297e+06
5.333e+06
5.02074e+06
4.59357e+06
4.59929e+06
4.62752e+06
4.64258e+06
4.94498e+06
5.25697e+06
5.55144e+06
5.82194e+06
6.05557e+06
6.10744e+06
6.06864e+06
6.0299e+06
5.99126e+06
5.95273e+06
5.91435e+06
5.87613e+06
5.83811e+06
5.80027e+06
5.7627e+06
5.7349e+06
5.70994e+06
5.69272e+06
5.67164e+06
5.64727e+06
5.62303e+06
5.59895e+06
5.57506e+06
5.55134e+06
5.5278e+06
5.50447e+06
5.48131e+06
5.45834e+06
5.43557e+06
5.41298e+06
5.39059e+06
5.3684e+06
5.3464e+06
5.32461e+06
5.30303e+06
5.28165e+06
5.26047e+06
5.23951e+06
5.21875e+06
5.19822e+06
5.1783e+06
5.15872e+06
5.1387e+06
5.11931e+06
5.0993e+06
5.07948e+06
5.06076e+06
5.04172e+06
5.02325e+06
5.00434e+06
4.98482e+06
4.96594e+06
4.94718e+06
4.92864e+06
4.91071e+06
4.87266e+06
4.75644e+06
4.65714e+06
4.66428e+06
4.67154e+06
4.67899e+06
4.6867e+06
4.81142e+06
4.95555e+06
5.13888e+06
8.2884e+06
8.25481e+06
8.215e+06
8.18516e+06
8.06655e+06
7.95167e+06
7.84945e+06
7.76017e+06
7.68226e+06
7.61505e+06
7.55789e+06
7.50925e+06
7.46901e+06
7.43648e+06
7.41063e+06
7.39115e+06
7.37737e+06
7.36884e+06
7.36522e+06
7.36598e+06
7.37067e+06
7.37901e+06
7.39063e+06
7.4053e+06
7.42266e+06
7.44244e+06
7.14067e+06
6.58028e+06
6.0608e+06
5.58626e+06
5.18686e+06
5.07078e+06
5.25759e+06
5.62677e+06
5.97215e+06
6.15095e+06
6.12531e+06
6.09947e+06
6.07322e+06
6.04703e+06
6.02109e+06
5.99515e+06
5.96922e+06
5.94332e+06
5.91747e+06
5.89169e+06
5.86596e+06
5.84033e+06
5.81477e+06
5.78958e+06
5.76462e+06
5.74304e+06
5.73061e+06
5.70616e+06
5.68161e+06
5.6572e+06
5.63294e+06
5.60887e+06
5.58499e+06
5.56126e+06
5.53773e+06
5.51439e+06
5.49122e+06
5.46825e+06
5.44547e+06
5.42288e+06
5.40049e+06
5.37829e+06
5.3563e+06
5.33451e+06
5.31292e+06
5.29154e+06
5.27034e+06
5.24936e+06
5.22858e+06
5.20795e+06
5.17926e+06
5.15098e+06
5.12291e+06
5.07618e+06
5.06784e+06
5.04087e+06
5.01405e+06
4.98775e+06
4.9505e+06
4.90864e+06
4.90983e+06
4.89001e+06
4.87815e+06
4.86633e+06
4.85443e+06
4.84249e+06
4.83048e+06
4.92167e+06
5.04055e+06
5.16015e+06
5.29008e+06
5.42984e+06
5.55506e+06
5.68637e+06
1.06247e+07
1.06184e+07
1.06023e+07
1.05935e+07
1.05859e+07
1.05825e+07
1.05811e+07
1.0582e+07
1.05849e+07
1.05893e+07
1.05956e+07
1.0603e+07
1.06114e+07
1.06209e+07
1.06313e+07
1.06422e+07
1.06536e+07
1.06655e+07
1.06776e+07
1.06901e+07
1.07027e+07
1.07154e+07
1.07281e+07
1.00493e+07
9.36006e+06
8.71513e+06
8.14553e+06
7.61279e+06
7.08495e+06
6.59357e+06
6.40566e+06
6.39767e+06
6.13097e+06
6.10138e+06
6.07114e+06
6.04033e+06
6.00901e+06
5.97724e+06
5.94975e+06
5.94019e+06
5.93031e+06
5.92011e+06
5.90962e+06
5.89885e+06
5.88783e+06
5.87656e+06
5.86505e+06
5.85333e+06
5.84141e+06
5.82929e+06
5.80758e+06
5.79702e+06
5.78002e+06
5.75549e+06
5.73098e+06
5.7065e+06
5.68206e+06
5.65764e+06
5.63334e+06
5.60911e+06
5.58492e+06
5.56086e+06
5.5369e+06
5.51304e+06
5.48932e+06
5.46571e+06
5.44224e+06
5.41891e+06
5.39573e+06
5.3727e+06
5.34981e+06
5.32707e+06
5.30449e+06
5.28207e+06
5.25978e+06
5.23768e+06
5.21563e+06
5.19393e+06
5.17196e+06
5.15099e+06
5.13014e+06
5.10854e+06
5.08759e+06
5.06641e+06
5.04597e+06
5.02638e+06
5.00605e+06
4.98546e+06
4.96521e+06
5.05877e+06
5.16646e+06
5.27498e+06
5.39253e+06
5.51982e+06
5.63511e+06
5.74661e+06
5.85877e+06
5.85335e+06
5.83109e+06
5.80472e+06
1.16099e+07
1.17343e+07
1.18436e+07
1.19415e+07
1.20274e+07
1.2103e+07
1.21692e+07
1.22257e+07
1.2274e+07
1.23143e+07
1.23471e+07
1.23733e+07
1.23929e+07
1.24065e+07
1.24149e+07
1.24183e+07
1.24167e+07
1.24108e+07
1.24007e+07
1.2387e+07
1.16501e+07
1.0793e+07
9.99316e+06
9.29293e+06
8.58057e+06
7.90406e+06
7.58899e+06
7.57134e+06
7.55271e+06
7.53323e+06
7.51294e+06
7.15109e+06
6.73387e+06
6.36524e+06
6.18674e+06
6.16591e+06
6.14458e+06
6.12279e+06
6.10058e+06
6.078e+06
6.05509e+06
6.03189e+06
6.00843e+06
5.98475e+06
5.96087e+06
5.93682e+06
5.91263e+06
5.88831e+06
5.86392e+06
5.83942e+06
5.82415e+06
5.81156e+06
5.787e+06
5.76238e+06
5.73786e+06
5.71322e+06
5.68885e+06
5.66439e+06
5.63998e+06
5.61564e+06
5.59138e+06
5.56722e+06
5.54317e+06
5.51924e+06
5.49543e+06
5.47174e+06
5.44819e+06
5.42477e+06
5.4015e+06
5.37837e+06
5.35539e+06
5.33256e+06
5.30989e+06
5.28736e+06
5.26498e+06
5.24276e+06
5.2207e+06
5.19879e+06
5.17709e+06
5.15549e+06
5.13417e+06
5.11283e+06
5.09179e+06
5.07073e+06
5.07921e+06
5.18126e+06
5.28434e+06
5.38824e+06
5.50243e+06
5.62501e+06
5.73391e+06
5.84147e+06
5.94979e+06
5.95435e+06
5.93168e+06
5.90909e+06
5.88663e+06
5.86433e+06
5.84195e+06
5.81557e+06
1.05047e+07
1.1743e+07
1.18528e+07
1.19512e+07
1.20377e+07
1.21136e+07
1.218e+07
1.2237e+07
1.22854e+07
1.23259e+07
1.23589e+07
1.23853e+07
1.24051e+07
1.24189e+07
1.24272e+07
1.24306e+07
1.24292e+07
1.20873e+07
1.10816e+07
1.01381e+07
9.31603e+06
8.49609e+06
7.70407e+06
7.6361e+06
7.62292e+06
7.60852e+06
7.59301e+06
7.57641e+06
7.55875e+06
7.54017e+06
7.52069e+06
7.50039e+06
7.37723e+06
6.99453e+06
6.64008e+06
6.32263e+06
6.15138e+06
6.12955e+06
6.1073e+06
6.08469e+06
6.06174e+06
6.0385e+06
6.01499e+06
5.99126e+06
5.96734e+06
5.94323e+06
5.919e+06
5.89462e+06
5.87017e+06
5.84945e+06
5.84051e+06
5.81733e+06
5.79264e+06
5.7678e+06
5.74323e+06
5.71806e+06
5.69416e+06
5.67033e+06
5.64531e+06
5.621e+06
5.59655e+06
5.57233e+06
5.54818e+06
5.52417e+06
5.50028e+06
5.47652e+06
5.45288e+06
5.42939e+06
5.40603e+06
5.38282e+06
5.35975e+06
5.33683e+06
5.31406e+06
5.29144e+06
5.26897e+06
5.24667e+06
5.22452e+06
5.20254e+06
5.18072e+06
5.15901e+06
5.24301e+06
5.33847e+06
5.43536e+06
5.53545e+06
5.64631e+06
5.75961e+06
5.86152e+06
5.96441e+06
6.06823e+06
6.0579e+06
6.03442e+06
6.01109e+06
5.98791e+06
5.96489e+06
5.94202e+06
5.91925e+06
5.8929e+06
5.86422e+06
5.8359e+06
5.8046e+06
7.15104e+06
8.61113e+06
9.90631e+06
1.11656e+07
1.20488e+07
1.21249e+07
1.21911e+07
1.22482e+07
1.22967e+07
1.23371e+07
1.23702e+07
1.23964e+07
1.24163e+07
1.24301e+07
1.24383e+07
1.18001e+07
1.06798e+07
9.67006e+06
8.76484e+06
7.83506e+06
7.66177e+06
7.65439e+06
7.64552e+06
7.63517e+06
7.62333e+06
7.61012e+06
7.59566e+06
7.58002e+06
7.56323e+06
7.54545e+06
7.52671e+06
7.50713e+06
7.48663e+06
7.46534e+06
7.27904e+06
6.94941e+06
6.64423e+06
6.36995e+06
6.11342e+06
6.09011e+06
6.06711e+06
6.04382e+06
6.02027e+06
5.99648e+06
5.97252e+06
5.94835e+06
5.92406e+06
5.89964e+06
5.87526e+06
5.84273e+06
5.77865e+06
5.71168e+06
5.64852e+06
5.58902e+06
5.53294e+06
5.48036e+06
5.39507e+06
5.3845e+06
5.34112e+06
5.30066e+06
5.26289e+06
5.22777e+06
5.19515e+06
5.16494e+06
5.13706e+06
5.1314e+06
5.13121e+06
5.13152e+06
5.13232e+06
5.13358e+06
5.13528e+06
5.13738e+06
5.13987e+06
5.14274e+06
5.15618e+06
5.26503e+06
5.37625e+06
5.48969e+06
5.60521e+06
5.73084e+06
5.86378e+06
5.98636e+06
6.1091e+06
6.23322e+06
6.32888e+06
6.33145e+06
6.20533e+06
5.99844e+06
5.76904e+06
5.52765e+06
5.28014e+06
5.03439e+06
4.79111e+06
4.55053e+06
4.31297e+06
4.07769e+06
3.84543e+06
3.61793e+06
3.41275e+06
3.04086e+06
4.9687e+06
5.65509e+06
6.79447e+06
7.82949e+06
8.73901e+06
9.70218e+06
1.06438e+07
1.15091e+07
1.23025e+07
1.2348e+07
1.23808e+07
1.24068e+07
1.24264e+07
1.1725e+07
1.04781e+07
9.38365e+06
8.363e+06
7.66145e+06
7.66124e+06
7.65913e+06
7.65506e+06
7.64923e+06
7.64178e+06
7.63277e+06
7.62218e+06
7.61011e+06
7.59667e+06
7.582e+06
7.5661e+06
7.54913e+06
7.5311e+06
7.43878e+06
7.27306e+06
7.11558e+06
6.96583e+06
6.82359e+06
6.56299e+06
6.18104e+06
5.8382e+06
5.63433e+06
5.44609e+06
5.27538e+06
5.2569e+06
5.23397e+06
5.21365e+06
5.19576e+06
5.18025e+06
5.16698e+06
5.15025e+06
5.12562e+06
5.09247e+06
5.1028e+06
5.14236e+06
5.17989e+06
5.21509e+06
5.24891e+06
5.17792e+06
5.07084e+06
4.97545e+06
4.88929e+06
4.98741e+06
5.20598e+06
5.41434e+06
5.61271e+06
5.80241e+06
5.98283e+06
5.88439e+06
5.77167e+06
5.66574e+06
5.56633e+06
5.4732e+06
5.38608e+06
5.30472e+06
5.22975e+06
5.17085e+06
5.12067e+06
5.06157e+06
5.0071e+06
4.95709e+06
4.91134e+06
4.76581e+06
4.61391e+06
4.46303e+06
4.38227e+06
4.31277e+06
4.21819e+06
4.12603e+06
4.05822e+06
3.99719e+06
3.93721e+06
3.87407e+06
3.79983e+06
3.65175e+06
3.50399e+06
3.3568e+06
3.21033e+06
3.06834e+06
2.92934e+06
2.79052e+06
2.6322e+06
5.00152e+06
5.43859e+06
5.37443e+06
5.31597e+06
5.51054e+06
6.37125e+06
7.19342e+06
7.96593e+06
8.58122e+06
9.20606e+06
9.83915e+06
9.89452e+06
9.00821e+06
8.26445e+06
7.56298e+06
7.41592e+06
7.64377e+06
7.64784e+06
7.64971e+06
7.64948e+06
7.6471e+06
7.64275e+06
7.55873e+06
7.30844e+06
7.07072e+06
6.84499e+06
6.63067e+06
6.55137e+06
6.55004e+06
6.56088e+06
6.62237e+06
6.69028e+06
6.7893e+06
7.02349e+06
7.24618e+06
7.45763e+06
8.04838e+06
8.78996e+06
8.57556e+06
8.00677e+06
7.46805e+06
6.95392e+06
6.46923e+06
6.0055e+06
5.56515e+06
5.1474e+06
4.76691e+06
4.48611e+06
4.24488e+06
4.02672e+06
3.84764e+06
3.68255e+06
3.52296e+06
3.36809e+06
3.22175e+06
3.06928e+06
2.92764e+06
2.80348e+06
2.68014e+06
2.57847e+06
2.55203e+06
2.50087e+06
2.40192e+06
2.31015e+06
2.22521e+06
2.02375e+06
1.88894e+06
1.81323e+06
1.74722e+06
1.68987e+06
1.64075e+06
1.59932e+06
1.56502e+06
1.53722e+06
1.51298e+06
1.48274e+06
1.4762e+06
1.49261e+06
1.53025e+06
1.58666e+06
1.65907e+06
1.74429e+06
1.85419e+06
1.98076e+06
2.09428e+06
2.20976e+06
2.22976e+06
2.18694e+06
2.12558e+06
2.05318e+06
1.97237e+06
1.86908e+06
1.77861e+06
1.71022e+06
1.64679e+06
1.55522e+06
1.48472e+06
1.4404e+06
1.42507e+06
1.64184e+06
5.03404e+06
5.47779e+06
5.41086e+06
5.34986e+06
5.29164e+06
5.23714e+06
5.18513e+06
5.13609e+06
5.08935e+06
5.64379e+06
4.59874e+06
3.5668e+06
2.91399e+06
2.80051e+06
3.16978e+06
3.54655e+06
3.94699e+06
4.04239e+06
3.97385e+06
3.89701e+06
3.95373e+06
4.14662e+06
4.52598e+06
5.07105e+06
5.53698e+06
5.97423e+06
6.55502e+06
6.30189e+06
5.87503e+06
5.46557e+06
5.10916e+06
4.83568e+06
4.63693e+06
4.44903e+06
4.26104e+06
4.11284e+06
4.07209e+06
3.71675e+06
3.5703e+06
3.31338e+06
3.03093e+06
2.76279e+06
2.40765e+06
2.10863e+06
1.86401e+06
1.69717e+06
1.58644e+06
1.53718e+06
1.56643e+06
1.63851e+06
1.7378e+06
1.87294e+06
2.04318e+06
2.22422e+06
2.40985e+06
2.59594e+06
2.69093e+06
2.74866e+06
2.809e+06
2.87076e+06
3.09346e+06
3.42739e+06
3.75201e+06
4.06525e+06
4.36589e+06
4.65325e+06
4.6636e+06
4.65432e+06
4.64599e+06
4.63857e+06
4.63202e+06
4.6263e+06
4.62137e+06
4.60735e+06
4.59309e+06
4.57896e+06
4.56497e+06
4.55111e+06
4.53736e+06
4.52371e+06
4.51015e+06
4.49667e+06
4.48095e+06
4.53331e+06
4.59454e+06
4.65605e+06
4.71776e+06
4.77961e+06
4.84158e+06
4.90174e+06
4.9564e+06
4.99741e+06
4.95933e+06
4.91806e+06
4.87344e+06
4.83103e+06
4.77416e+06
4.71481e+06
4.65028e+06
4.62355e+06
5.06618e+06
5.5164e+06
5.44669e+06
5.3832e+06
5.32248e+06
5.26578e+06
5.21168e+06
5.16061e+06
4.26393e+06
2.36827e+06
1.69096e+06
1.74924e+06
1.73134e+06
1.8587e+06
2.09752e+06
2.23366e+06
1.92411e+06
1.92048e+06
2.11493e+06
2.55378e+06
3.01962e+06
2.57539e+06
2.2481e+06
2.12896e+06
2.01163e+06
1.92499e+06
1.81057e+06
2.07737e+06
2.07389e+06
1.96884e+06
1.94754e+06
2.04049e+06
2.22686e+06
2.57845e+06
2.98896e+06
3.46204e+06
4.30781e+06
5.28133e+06
5.35141e+06
5.28242e+06
5.21719e+06
5.15562e+06
5.09757e+06
5.04499e+06
4.94063e+06
4.77435e+06
4.6348e+06
4.5896e+06
4.57064e+06
4.55309e+06
4.53583e+06
4.51988e+06
4.50629e+06
4.49392e+06
4.48252e+06
4.4721e+06
4.46262e+06
4.45404e+06
4.43699e+06
4.41424e+06
4.39287e+06
4.37283e+06
4.35406e+06
4.33649e+06
4.32008e+06
4.30478e+06
4.29054e+06
4.27731e+06
4.26505e+06
4.25369e+06
4.24321e+06
4.23358e+06
4.22488e+06
4.21709e+06
4.20987e+06
4.20333e+06
4.19745e+06
4.19221e+06
4.18759e+06
4.18354e+06
4.18005e+06
4.17706e+06
4.17456e+06
4.17252e+06
4.17094e+06
4.16979e+06
4.16908e+06
4.16879e+06
4.16889e+06
4.16828e+06
4.15918e+06
4.15069e+06
4.14285e+06
4.13655e+06
4.13093e+06
4.18734e+06
4.24371e+06
4.30054e+06
4.35408e+06
4.3981e+06
5.09799e+06
5.55434e+06
5.48189e+06
5.41593e+06
5.35277e+06
5.29375e+06
5.23762e+06
3.30583e+06
1.71972e+06
1.80703e+06
1.97376e+06
1.8269e+06
1.82469e+06
2.20124e+06
2.97177e+06
3.07222e+06
2.31589e+06
1.92531e+06
1.71507e+06
1.5618e+06
1.58947e+06
2.36948e+06
2.61778e+06
3.18545e+06
3.86836e+06
4.58629e+06
5.49109e+06
5.61003e+06
5.57968e+06
5.54549e+06
5.4734e+06
5.40603e+06
5.34228e+06
5.28253e+06
5.23503e+06
5.19016e+06
5.12713e+06
5.06866e+06
5.02469e+06
4.98375e+06
4.94532e+06
4.9091e+06
4.87544e+06
4.7757e+06
4.61184e+06
4.48104e+06
4.43529e+06
4.39212e+06
4.35134e+06
4.31273e+06
4.27639e+06
4.25384e+06
4.23316e+06
4.2128e+06
4.1927e+06
4.17278e+06
4.15313e+06
4.13372e+06
4.11453e+06
4.09556e+06
4.07679e+06
4.05822e+06
4.03986e+06
4.02171e+06
4.00373e+06
3.98595e+06
3.96834e+06
3.95091e+06
3.93365e+06
3.91655e+06
3.89963e+06
3.88287e+06
3.86629e+06
3.85947e+06
3.85375e+06
3.84869e+06
3.84426e+06
3.84043e+06
3.83716e+06
3.83443e+06
3.83224e+06
3.83056e+06
3.82936e+06
3.82862e+06
3.8283e+06
3.82826e+06
3.81828e+06
3.80894e+06
3.80032e+06
3.79299e+06
3.7863e+06
3.77949e+06
3.77325e+06
3.76778e+06
3.77337e+06
3.78e+06
3.78519e+06
3.79037e+06
3.79561e+06
3.80426e+06
5.12947e+06
5.59156e+06
5.51642e+06
5.44794e+06
5.38247e+06
4.8064e+06
2.52771e+06
1.86159e+06
1.78138e+06
2.70338e+06
4.10502e+06
4.34804e+06
3.37675e+06
2.98862e+06
2.54854e+06
2.14723e+06
2.64723e+06
2.97221e+06
3.71718e+06
4.82148e+06
5.83764e+06
5.78823e+06
5.78185e+06
5.79877e+06
5.80353e+06
5.70943e+06
5.62208e+06
5.55307e+06
5.48498e+06
5.38549e+06
5.29477e+06
5.22969e+06
5.16817e+06
5.11023e+06
5.05457e+06
4.96453e+06
4.87925e+06
4.8478e+06
4.81887e+06
4.79037e+06
4.76263e+06
4.7351e+06
4.63455e+06
4.48417e+06
4.40018e+06
4.37745e+06
4.35503e+06
4.33281e+06
4.31097e+06
4.2894e+06
4.26805e+06
4.24705e+06
4.22629e+06
4.20575e+06
4.18553e+06
4.16554e+06
4.14577e+06
4.12626e+06
4.10698e+06
4.08792e+06
4.06907e+06
4.05042e+06
4.03197e+06
4.01374e+06
3.99571e+06
3.97787e+06
3.96019e+06
3.9427e+06
3.92538e+06
3.90824e+06
3.89127e+06
3.87448e+06
3.85782e+06
3.84133e+06
3.825e+06
3.80882e+06
3.7928e+06
3.77692e+06
3.76118e+06
3.74557e+06
3.73009e+06
3.71472e+06
3.69095e+06
3.665e+06
3.63946e+06
3.61496e+06
3.59098e+06
3.56667e+06
3.54275e+06
3.52029e+06
3.50683e+06
3.49351e+06
3.48034e+06
3.46731e+06
3.4544e+06
3.45658e+06
3.46232e+06
3.46843e+06
3.47465e+06
3.47862e+06
5.16065e+06
5.62804e+06
5.55028e+06
5.62381e+06
5.32107e+06
4.01185e+06
3.84308e+06
5.99557e+06
5.41024e+06
4.55589e+06
3.62238e+06
2.68884e+06
3.01015e+06
3.36078e+06
4.97866e+06
6.12445e+06
6.06397e+06
6.01378e+06
6.03635e+06
6.05778e+06
6.0701e+06
5.96687e+06
5.87736e+06
5.77517e+06
5.63897e+06
5.5166e+06
5.43055e+06
5.34398e+06
5.21613e+06
5.09963e+06
5.06487e+06
5.03093e+06
4.99777e+06
4.96528e+06
4.93352e+06
4.90236e+06
4.87185e+06
4.84188e+06
4.8127e+06
4.78378e+06
4.75557e+06
4.65241e+06
4.49718e+06
4.41727e+06
4.394e+06
4.37096e+06
4.34836e+06
4.32603e+06
4.30396e+06
4.28225e+06
4.26079e+06
4.23959e+06
4.21872e+06
4.1981e+06
4.17772e+06
4.15763e+06
4.13779e+06
4.11817e+06
4.09878e+06
4.07964e+06
4.06071e+06
4.04199e+06
4.02348e+06
4.00518e+06
3.98706e+06
3.96916e+06
3.95142e+06
3.93388e+06
3.91652e+06
3.89936e+06
3.88237e+06
3.86555e+06
3.8489e+06
3.83241e+06
3.81606e+06
3.79986e+06
3.78379e+06
3.76786e+06
3.74752e+06
3.72031e+06
3.69353e+06
3.66756e+06
3.64224e+06
3.6169e+06
3.5918e+06
3.56724e+06
3.55329e+06
3.53948e+06
3.5258e+06
3.51226e+06
3.49885e+06
3.48559e+06
3.47246e+06
3.45947e+06
3.44663e+06
3.43393e+06
3.42134e+06
3.409e+06
3.39654e+06
3.38377e+06
5.19155e+06
6.61352e+06
8.185e+06
8.32902e+06
8.3001e+06
7.1579e+06
6.07984e+06
3.78938e+06
3.36912e+06
3.52016e+06
5.19821e+06
6.4109e+06
6.33747e+06
6.26739e+06
6.2748e+06
6.30078e+06
6.32879e+06
6.32734e+06
6.21467e+06
6.07864e+06
5.90409e+06
5.74554e+06
5.59671e+06
5.43236e+06
5.28739e+06
5.24723e+06
5.20806e+06
5.17009e+06
5.13301e+06
5.0969e+06
5.06165e+06
5.02714e+06
4.9935e+06
4.96051e+06
4.92822e+06
4.89656e+06
4.86573e+06
4.83531e+06
4.80566e+06
4.77662e+06
4.67417e+06
4.5145e+06
4.43447e+06
4.41053e+06
4.38708e+06
4.3639e+06
4.34102e+06
4.31855e+06
4.29634e+06
4.27442e+06
4.25284e+06
4.23153e+06
4.21049e+06
4.18976e+06
4.1693e+06
4.14908e+06
4.12915e+06
4.10946e+06
4.08998e+06
4.07075e+06
4.05174e+06
4.03296e+06
4.01438e+06
3.99602e+06
3.97784e+06
3.95988e+06
3.9421e+06
3.92452e+06
3.90712e+06
3.88989e+06
3.87286e+06
3.85601e+06
3.83934e+06
3.82284e+06
3.80651e+06
3.77961e+06
3.75144e+06
3.72382e+06
3.69693e+06
3.67044e+06
3.64408e+06
3.61815e+06
3.60114e+06
3.58682e+06
3.57264e+06
3.5586e+06
3.54469e+06
3.53092e+06
3.51728e+06
3.5038e+06
3.49045e+06
3.47724e+06
3.46417e+06
3.45124e+06
3.43845e+06
3.4258e+06
3.41326e+06
3.40098e+06
3.38858e+06
3.37591e+06
9.44065e+06
1.19919e+07
1.31985e+07
9.1599e+06
5.05744e+06
3.19022e+06
3.96407e+06
6.18557e+06
6.67513e+06
6.58877e+06
6.50638e+06
6.52661e+06
6.55565e+06
6.61473e+06
6.65563e+06
6.49794e+06
6.3195e+06
6.10251e+06
5.84899e+06
5.64768e+06
5.46485e+06
5.41841e+06
5.37338e+06
5.32983e+06
5.28756e+06
5.24663e+06
5.20675e+06
5.16796e+06
5.13021e+06
5.09337e+06
5.05761e+06
5.0226e+06
4.98843e+06
4.95495e+06
4.92228e+06
4.89009e+06
4.85879e+06
4.82816e+06
4.79789e+06
4.70076e+06
4.53569e+06
4.45178e+06
4.42736e+06
4.40322e+06
4.37946e+06
4.35615e+06
4.33311e+06
4.3104e+06
4.28807e+06
4.266e+06
4.24423e+06
4.22281e+06
4.20167e+06
4.1808e+06
4.16023e+06
4.13993e+06
4.11989e+06
4.1001e+06
4.08056e+06
4.06125e+06
4.04218e+06
4.02334e+06
4.00469e+06
3.98625e+06
3.96803e+06
3.95003e+06
3.93223e+06
3.91461e+06
3.8972e+06
3.87997e+06
3.86292e+06
3.84338e+06
3.81364e+06
3.78439e+06
3.75576e+06
3.7278e+06
3.70011e+06
3.67283e+06
3.65055e+06
3.63569e+06
3.62096e+06
3.60637e+06
3.59193e+06
3.57763e+06
3.56349e+06
3.54949e+06
3.53564e+06
3.52192e+06
3.50834e+06
3.4949e+06
3.48161e+06
3.46845e+06
3.45545e+06
3.44258e+06
3.42985e+06
3.41727e+06
3.40479e+06
3.39256e+06
3.38021e+06
3.36761e+06
1.46625e+07
1.17776e+07
5.11818e+06
3.91693e+06
5.60253e+06
6.9912e+06
6.88813e+06
6.79042e+06
6.76931e+06
6.80057e+06
6.87571e+06
6.95092e+06
6.86094e+06
6.66679e+06
6.3398e+06
6.02378e+06
5.78919e+06
5.62074e+06
5.56804e+06
5.51727e+06
5.46821e+06
5.42075e+06
5.37474e+06
5.33023e+06
5.28713e+06
5.24536e+06
5.20482e+06
5.16523e+06
5.12685e+06
5.08935e+06
5.0529e+06
5.01732e+06
4.98268e+06
4.94864e+06
4.91553e+06
4.88307e+06
4.8511e+06
4.82021e+06
4.73183e+06
4.56127e+06
4.46947e+06
4.44428e+06
4.41954e+06
4.39526e+06
4.37127e+06
4.34771e+06
4.32455e+06
4.30167e+06
4.27913e+06
4.25696e+06
4.23507e+06
4.21347e+06
4.19221e+06
4.17125e+06
4.15057e+06
4.13016e+06
4.11002e+06
4.09014e+06
4.07054e+06
4.05117e+06
4.03203e+06
4.01311e+06
3.99441e+06
3.97594e+06
3.95768e+06
3.93962e+06
3.92178e+06
3.90413e+06
3.88112e+06
3.85013e+06
3.81968e+06
3.78981e+06
3.76062e+06
3.73181e+06
3.70346e+06
3.68625e+06
3.67092e+06
3.65575e+06
3.64073e+06
3.62589e+06
3.6112e+06
3.59667e+06
3.58228e+06
3.56803e+06
3.55392e+06
3.53995e+06
3.52613e+06
3.51246e+06
3.49894e+06
3.48557e+06
3.47234e+06
3.45925e+06
3.44629e+06
3.43348e+06
3.42081e+06
3.40829e+06
3.39588e+06
3.38371e+06
3.37144e+06
3.35891e+06
5.68125e+06
2.90694e+06
6.68464e+06
7.24857e+06
7.13098e+06
7.01981e+06
7.03705e+06
7.10462e+06
7.19348e+06
7.2435e+06
7.10069e+06
6.74295e+06
6.35465e+06
6.03888e+06
5.80166e+06
5.7411e+06
5.68284e+06
5.62685e+06
5.57292e+06
5.52097e+06
5.47082e+06
5.42237e+06
5.37544e+06
5.32995e+06
5.28601e+06
5.24335e+06
5.20215e+06
5.1619e+06
5.12284e+06
5.08474e+06
5.04766e+06
5.01139e+06
4.97624e+06
4.94183e+06
4.90798e+06
4.87527e+06
4.84296e+06
4.76801e+06
4.5917e+06
4.48738e+06
4.46151e+06
4.43615e+06
4.41114e+06
4.3866e+06
4.36248e+06
4.3387e+06
4.31532e+06
4.29231e+06
4.26961e+06
4.24726e+06
4.22527e+06
4.20357e+06
4.18217e+06
4.1611e+06
4.14031e+06
4.1198e+06
4.09957e+06
4.07963e+06
4.05996e+06
4.04051e+06
4.02131e+06
4.00233e+06
3.98359e+06
3.96507e+06
3.94679e+06
3.92192e+06
3.88953e+06
3.85761e+06
3.82626e+06
3.79566e+06
3.76566e+06
3.73883e+06
3.72284e+06
3.70703e+06
3.6914e+06
3.67595e+06
3.66065e+06
3.6455e+06
3.6305e+06
3.61566e+06
3.60098e+06
3.58647e+06
3.57212e+06
3.55793e+06
3.54389e+06
3.52998e+06
3.51621e+06
3.50258e+06
3.48911e+06
3.47579e+06
3.46262e+06
3.44959e+06
3.43671e+06
3.42396e+06
3.41134e+06
3.39887e+06
3.38651e+06
3.3744e+06
3.3622e+06
3.34975e+06
5.63481e+06
6.79366e+06
7.11646e+06
7.28134e+06
7.30107e+06
7.3976e+06
7.49656e+06
7.52856e+06
7.3155e+06
6.88717e+06
6.45066e+06
6.11397e+06
5.94306e+06
5.87565e+06
5.81095e+06
5.74888e+06
5.68927e+06
5.63201e+06
5.57687e+06
5.52378e+06
5.47262e+06
5.42316e+06
5.37537e+06
5.32892e+06
5.28419e+06
5.24069e+06
5.19867e+06
5.15781e+06
5.11809e+06
5.07932e+06
5.04172e+06
5.00498e+06
4.96906e+06
4.93435e+06
4.90007e+06
4.86668e+06
4.80956e+06
4.62683e+06
4.50576e+06
4.47916e+06
4.45299e+06
4.42734e+06
4.40216e+06
4.37735e+06
4.353e+06
4.32908e+06
4.30552e+06
4.28233e+06
4.2595e+06
4.23701e+06
4.21486e+06
4.19306e+06
4.17156e+06
4.15035e+06
4.12946e+06
4.10888e+06
4.08857e+06
4.06854e+06
4.04879e+06
4.02929e+06
4.01003e+06
3.99099e+06
3.9662e+06
3.93226e+06
3.89874e+06
3.86572e+06
3.83362e+06
3.80229e+06
3.77707e+06
3.76054e+06
3.74418e+06
3.728e+06
3.71202e+06
3.6962e+06
3.68057e+06
3.66511e+06
3.64984e+06
3.63473e+06
3.61979e+06
3.60499e+06
3.59035e+06
3.57586e+06
3.56154e+06
3.54737e+06
3.53336e+06
3.51952e+06
3.50582e+06
3.49227e+06
3.47886e+06
3.46559e+06
3.45247e+06
3.43949e+06
3.42667e+06
3.41398e+06
3.40144e+06
3.38904e+06
3.37674e+06
3.36468e+06
3.35252e+06
3.34016e+06
6.26019e+06
6.83265e+06
7.28202e+06
7.67143e+06
7.78102e+06
7.81133e+06
7.6039e+06
7.13295e+06
6.64123e+06
6.25639e+06
6.10261e+06
6.02699e+06
5.95468e+06
5.88566e+06
5.8195e+06
5.75606e+06
5.69512e+06
5.63657e+06
5.58029e+06
5.52606e+06
5.47386e+06
5.42329e+06
5.37461e+06
5.3273e+06
5.28171e+06
5.23749e+06
5.19461e+06
5.15295e+06
5.1126e+06
5.07326e+06
5.03491e+06
4.99787e+06
4.96141e+06
4.92598e+06
4.89157e+06
4.85339e+06
4.66718e+06
4.52463e+06
4.49717e+06
4.47029e+06
4.44391e+06
4.41795e+06
4.3925e+06
4.36753e+06
4.34296e+06
4.31882e+06
4.29509e+06
4.27174e+06
4.24876e+06
4.22616e+06
4.2039e+06
4.18196e+06
4.16034e+06
4.13906e+06
4.11807e+06
4.0974e+06
4.07703e+06
4.05694e+06
4.0371e+06
4.01468e+06
3.97895e+06
3.94364e+06
3.90872e+06
3.87488e+06
3.84203e+06
3.81659e+06
3.79943e+06
3.78249e+06
3.76573e+06
3.74918e+06
3.73283e+06
3.71668e+06
3.70072e+06
3.68493e+06
3.66931e+06
3.65387e+06
3.63859e+06
3.62348e+06
3.60856e+06
3.59381e+06
3.57924e+06
3.56482e+06
3.55055e+06
3.53642e+06
3.52245e+06
3.50863e+06
3.49498e+06
3.48149e+06
3.46815e+06
3.45495e+06
3.4419e+06
3.42898e+06
3.4162e+06
3.40357e+06
3.39109e+06
3.37876e+06
3.36653e+06
3.35454e+06
3.34246e+06
3.33016e+06
6.35506e+06
7.1871e+06
7.77034e+06
8.09286e+06
7.97518e+06
7.49598e+06
6.94187e+06
6.47413e+06
6.28351e+06
6.1982e+06
6.1169e+06
6.03961e+06
5.96572e+06
5.89512e+06
5.82747e+06
5.76258e+06
5.70026e+06
5.64042e+06
5.58302e+06
5.52765e+06
5.47439e+06
5.42274e+06
5.37308e+06
5.32502e+06
5.27854e+06
5.23354e+06
5.18997e+06
5.14756e+06
5.10635e+06
5.06658e+06
5.02757e+06
4.98983e+06
4.95317e+06
4.91708e+06
4.88218e+06
4.71331e+06
4.54457e+06
4.51572e+06
4.48807e+06
4.46081e+06
4.43414e+06
4.40798e+06
4.38227e+06
4.35708e+06
4.33233e+06
4.30799e+06
4.28407e+06
4.26059e+06