/*--------------------------------*- C++ -*----------------------------------*\
| =========                 |                                                 |
| \\      /  F ield         | foam-extend: Open Source CFD                    |
|  \\    /   O peration     | Version:     4.1                                |
|   \\  /    A nd           | Web:         http://www.foam-extend.org         |
|    \\/     M anipulation  |                                                 |
\*---------------------------------------------------------------------------*/
FoamFile
{
    version     2.0;
    format      ascii;
    class       volScalarField;
    location    "10";
    object      sigmaHyd;
}
// * * * * * * * * * * * * * * * * * * * * * * * * * * * * * * * * * * * * * //

dimensions      [1 -1 -2 0 0 0 0];

internalField   nonuniform List<scalar> 
100000
(
-470623
-469418
-469650
-469148
-469041
-468741
-468553
-468318
-468118
-467910
-467716
-467525
-467341
-467161
-466988
-466819
-466655
-466496
-466341
-466191
-466045
-465903
-465765
-465630
-465499
-465371
-465247
-465124
-465008
-464883
-464778
-464626
-464527
-464474
-464356
-464253
-464155
-464055
-463961
-463867
-463776
-463686
-463599
-463513
-463429
-463347
-463266
-463187
-463109
-463033
-462958
-462884
-462811
-462740
-462670
-462601
-462533
-462466
-462400
-462335
-462271
-462208
-462145
-462084
-462023
-461963
-461903
-461845
-461787
-461729
-461673
-461617
-461561
-461506
-461452
-461399
-461346
-461293
-461241
-461190
-461138
-461087
-461037
-460986
-460937
-460885
-460836
-460785
-460736
-460687
-460639
-460592
-460547
-460502
-460464
-460421
-460407
-460356
-460434
-460155
-487669
-486048
-485991
-485148
-484741
-484132
-483653
-483131
-482653
-482174
-481717
-481268
-480834
-480411
-479999
-479599
-479210
-478830
-478461
-478101
-477750
-477408
-477075
-476750
-476434
-476125
-475827
-475531
-475265
-474966
-474813
-474398
-474327
-473876
-473772
-473402
-473180
-472920
-472691
-472459
-472237
-472018
-471805
-471595
-471390
-471189
-470992
-470799
-470609
-470422
-470239
-470060
-469883
-469710
-469539
-469372
-469208
-469046
-468887
-468731
-468577
-468425
-468276
-468128
-467984
-467841
-467700
-467561
-467425
-467290
-467157
-467026
-466897
-466770
-466645
-466521
-466400
-466278
-466160
-466041
-465923
-465808
-465695
-465582
-465473
-465361
-465250
-465141
-465033
-464927
-464823
-464720
-464621
-464520
-464430
-464328
-464262
-464144
-464168
-463773
-504706
-502669
-502323
-501140
-500433
-499517
-498747
-497937
-497182
-496431
-495710
-495005
-494321
-493654
-493005
-492373
-491758
-491158
-490574
-490005
-489450
-488908
-488380
-487865
-487362
-486871
-486393
-485924
-485469
-485021
-484586
-484175
-483701
-483280
-482924
-482524
-482150
-481771
-481406
-481044
-480691
-480345
-480006
-479674
-479348
-479028
-478715
-478407
-478105
-477809
-477518
-477233
-476952
-476677
-476407
-476141
-475880
-475623
-475371
-475124
-474880
-474640
-474403
-474171
-473942
-473717
-473495
-473276
-473061
-472848
-472639
-472433
-472231
-472030
-471834
-471639
-471450
-471261
-471077
-470895
-470711
-470530
-470359
-470182
-470023
-469844
-469672
-469499
-469333
-469169
-469009
-468850
-468698
-468543
-468403
-468243
-468134
-467935
-467925
-467367
-521730
-519277
-518643
-517119
-516113
-514889
-513829
-512732
-511700
-510678
-509694
-508732
-507798
-506887
-506002
-505138
-504298
-503478
-502679
-501901
-501141
-500400
-499677
-498972
-498284
-497611
-496956
-496313
-495690
-495071
-494474
-493871
-493210
-492731
-492202
-491661
-491143
-490624
-490121
-489626
-489142
-488667
-488202
-487747
-487300
-486862
-486432
-486011
-485597
-485191
-484792
-484401
-484017
-483639
-483269
-482905
-482548
-482197
-481852
-481513
-481179
-480851
-480528
-480210
-479897
-479589
-479286
-478987
-478693
-478404
-478119
-477838
-477562
-477290
-477023
-476758
-476503
-476243
-475998
-475741
-475484
-475243
-475007
-474767
-474551
-474314
-474070
-473848
-473621
-473403
-473186
-472973
-472766
-472555
-472361
-472145
-471981
-471723
-471658
-471031
-538738
-535870
-534948
-533084
-531778
-530247
-528896
-527512
-526203
-524911
-523664
-522446
-521262
-520108
-518986
-517891
-516825
-515786
-514773
-513785
-512821
-511881
-510964
-510068
-509194
-508340
-507506
-506690
-505894
-505114
-504350
-503606
-502861
-502153
-501464
-500782
-500118
-499464
-498825
-498198
-497584
-496981
-496391
-495812
-495245
-494689
-494143
-493607
-493082
-492566
-492060
-491563
-491076
-490596
-490126
-489663
-489209
-488764
-488327
-487896
-487473
-487057
-486647
-486244
-485847
-485456
-485072
-484693
-484321
-483954
-483593
-483236
-482886
-482539
-482201
-481862
-481539
-481207
-480905
-480609
-480269
-479946
-479668
-479358
-479182
-478821
-478499
-478191
-477911
-477629
-477360
-477090
-476830
-476564
-476317
-476045
-475831
-475513
-475401
-474706
-555725
-552441
-551232
-549028
-547424
-545586
-543945
-542275
-540689
-539127
-537618
-536143
-534710
-533314
-531954
-530629
-529338
-528079
-526852
-525655
-524488
-523348
-522237
-521151
-520092
-519056
-518045
-517056
-516091
-515144
-514218
-513313
-512414
-511564
-510722
-509897
-509090
-508297
-507522
-506761
-506016
-505286
-504570
-503869
-503181
-502506
-501845
-501195
-500559
-499933
-499320
-498717
-498125
-497543
-496973
-496412
-495863
-495325
-494794
-494273
-493760
-493256
-492759
-492271
-491790
-491317
-490852
-490394
-489943
-489499
-489062
-488631
-488208
-487790
-487384
-486977
-486597
-486192
-485886
-485436
-484959
-484644
-484289
-483897
-483668
-483291
-482801
-482533
-482177
-481857
-481528
-481206
-480890
-480570
-480269
-479942
-479675
-479303
-479142
-478391
-572687
-568989
-567492
-564950
-563047
-560903
-558972
-557016
-555154
-553322
-551551
-549820
-548139
-546500
-544904
-543348
-541832
-540355
-538914
-537508
-536137
-534799
-533493
-532218
-530974
-529757
-528569
-527408
-526273
-525163
-524077
-523016
-521974
-520961
-519969
-518998
-518048
-517117
-516206
-515312
-514437
-513579
-512738
-511914
-511106
-510313
-509536
-508773
-508025
-507291
-506570
-505862
-505168
-504483
-503814
-503152
-502504
-501875
-501254
-500641
-500040
-499447
-498864
-498290
-497726
-497170
-496624
-496086
-495557
-495035
-494522
-494015
-493517
-493020
-492540
-492038
-491592
-491018
-490714
-489951
-489797
-489189
-488796
-488336
-488413
-487422
-487186
-486728
-486433
-486040
-485682
-485305
-484940
-484567
-484214
-483834
-483516
-483091
-482882
-482074
-589619
-585508
-583725
-580844
-578643
-576193
-573974
-571732
-569595
-567493
-565460
-563474
-561544
-559663
-557831
-556046
-554306
-552609
-550955
-549341
-547767
-546231
-544731
-543267
-541837
-540441
-539076
-537743
-536439
-535164
-533917
-532698
-531504
-530340
-529200
-528085
-526993
-525923
-524876
-523849
-522844
-521858
-520893
-519946
-519018
-518107
-517214
-516338
-515479
-514635
-513807
-512992
-512195
-511405
-510638
-509872
-509136
-508423
-507703
-507002
-506309
-505628
-504959
-504300
-503652
-503014
-502387
-501770
-501162
-500564
-499975
-499395
-498824
-498260
-497704
-497158
-496609
-496089
-495500
-495092
-494647
-494073
-493571
-493115
-492535
-492118
-491750
-491206
-490769
-490303
-489865
-489424
-488998
-488567
-488158
-487724
-487354
-486875
-486618
-485755
-606519
-601995
-599925
-596707
-594208
-591454
-588946
-586419
-584007
-581636
-579342
-577102
-574924
-572801
-570734
-568719
-566755
-564840
-562973
-561152
-559375
-557640
-555947
-554295
-552680
-551104
-549563
-548058
-546586
-545147
-543740
-542364
-541018
-539702
-538414
-537154
-535920
-534712
-533529
-532370
-531235
-530122
-529032
-527963
-526914
-525887
-524879
-523890
-522920
-521968
-521035
-520115
-519220
-518326
-517468
-516588
-515729
-514939
-514150
-513347
-512572
-511798
-511044
-510299
-509567
-508847
-508140
-507443
-506757
-506082
-505418
-504763
-504119
-503483
-502859
-502241
-501639
-501038
-500463
-499914
-499324
-498742
-498211
-497655
-497226
-496625
-496078
-495529
-495021
-494507
-494013
-493519
-493038
-492554
-492093
-491605
-491184
-490652
-490347
-489430
-623380
-618445
-616090
-612534
-609740
-606680
-603885
-601074
-598387
-595749
-593194
-590699
-588274
-585910
-583608
-581364
-579177
-577044
-574965
-572936
-570957
-569025
-567139
-565298
-563500
-561744
-560028
-558350
-556711
-555108
-553541
-552008
-550509
-549043
-547608
-546203
-544829
-543483
-542164
-540873
-539608
-538368
-537153
-535962
-534794
-533649
-532526
-531424
-530344
-529282
-528242
-527215
-526214
-525209
-524251
-523215
-522337
-521532
-520569
-519691
-518813
-517955
-517112
-516283
-515469
-514668
-513879
-513104
-512341
-511589
-510850
-510122
-509405
-508699
-508003
-507319
-506643
-505983
-505325
-504694
-504066
-503434
-502817
-502209
-501606
-501015
-500439
-499850
-499284
-498716
-498163
-497613
-497076
-496537
-496021
-495481
-495007
-494424
-494070
-493100
-640201
-634855
-632215
-628323
-625233
-621870
-618787
-615693
-612733
-609826
-607011
-604264
-601592
-598987
-596451
-593978
-591569
-589219
-586927
-584692
-582511
-580382
-578304
-576275
-574293
-572358
-570467
-568618
-566812
-565045
-563318
-561629
-559977
-558361
-556779
-555231
-553716
-552232
-550779
-549355
-547961
-546594
-545255
-543942
-542656
-541394
-540156
-538942
-537752
-536583
-535442
-534313
-533233
-532122
-531179
-529957
-529360
-527916
-527100
-525999
-525067
-524098
-523174
-522256
-521359
-520475
-519606
-518752
-517911
-517084
-516269
-515467
-514678
-513901
-513136
-512382
-511641
-510911
-510193
-509488
-508789
-508098
-507424
-506752
-506103
-505442
-504798
-504155
-503528
-502906
-502296
-501691
-501100
-500507
-499939
-499346
-498822
-498186
-497785
-496761
-656976
-651220
-648296
-644070
-640684
-637018
-633650
-630272
-627039
-623866
-620792
-617792
-614874
-612029
-609259
-606559
-603927
-601361
-598858
-596416
-594034
-591709
-589439
-587222
-585058
-582944
-580878
-578859
-576885
-574956
-573069
-571224
-569419
-567654
-565926
-564234
-562579
-560958
-559370
-557815
-556292
-554799
-553336
-551902
-550496
-549117
-547765
-546438
-545138
-543861
-542609
-541380
-540174
-538996
-537824
-536743
-535506
-534345
-533348
-532271
-531244
-530212
-529203
-528207
-527228
-526265
-525317
-524384
-523466
-522563
-521674
-520799
-519937
-519089
-518253
-517431
-516621
-515824
-515038
-514265
-513503
-512750
-512008
-511277
-510556
-509843
-509141
-508446
-507762
-507086
-506420
-505761
-505115
-504469
-503848
-503202
-502627
-501939
-501490
-500413
-673701
-667537
-664330
-659769
-656090
-652122
-648468
-644809
-641304
-637864
-634532
-631280
-628116
-625033
-622030
-619103
-616249
-613467
-610753
-608106
-605523
-603002
-600541
-598138
-595791
-593498
-591258
-589069
-586930
-584838
-582792
-580791
-578834
-576919
-575045
-573212
-571416
-569658
-567937
-566250
-564598
-562979
-561393
-559838
-558313
-556818
-555352
-553914
-552503
-551119
-549762
-548427
-547122
-545830
-544575
-543315
-542064
-540888
-539738
-538571
-537445
-536323
-535228
-534146
-533085
-532040
-531012
-530001
-529006
-528027
-527063
-526115
-525181
-524262
-523356
-522465
-521587
-520722
-519871
-519032
-518205
-517389
-516586
-515793
-515012
-514239
-513478
-512726
-511985
-511252
-510531
-509817
-509118
-508418
-507745
-507047
-506421
-505682
-505185
-504056
-690373
-683802
-680313
-675419
-671446
-667178
-663239
-659299
-655522
-651818
-648228
-644725
-641317
-637995
-634760
-631606
-628532
-625534
-622611
-619759
-616976
-614259
-611608
-609019
-606490
-604020
-601606
-599247
-596942
-594688
-592484
-590328
-588219
-586156
-584136
-582160
-580225
-578331
-576476
-574659
-572878
-571134
-569424
-567749
-566106
-564494
-562914
-561365
-559844
-558352
-556888
-555451
-554040
-552656
-551291
-549959
-548629
-547332
-546076
-544828
-543611
-542407
-541227
-540064
-538921
-537795
-536689
-535600
-534528
-533474
-532436
-531414
-530408
-529418
-528443
-527482
-526536
-525605
-524687
-523783
-522892
-522013
-521147
-520293
-519451
-518619
-517800
-516991
-516193
-515405
-514629
-513861
-513108
-512355
-511629
-510880
-510203
-509413
-508868
-507687
-706986
-700010
-696240
-691014
-686750
-682181
-677959
-673738
-669692
-665724
-661877
-658123
-654472
-650913
-647446
-644067
-640773
-637560
-634428
-631371
-628389
-625478
-622637
-619862
-617152
-614505
-611918
-609391
-606920
-604504
-602142
-599832
-597571
-595360
-593196
-591078
-589004
-586974
-584986
-583038
-581130
-579261
-577429
-575632
-573872
-572145
-570451
-568790
-567161
-565562
-563993
-562452
-560940
-559453
-557994
-556558
-555146
-553765
-552411
-551076
-549767
-548477
-547211
-545964
-544738
-543533
-542347
-541180
-540032
-538902
-537790
-536695
-535617
-534556
-533512
-532483
-531469
-530471
-529488
-528519
-527564
-526622
-525694
-524779
-523877
-522987
-522109
-521243
-520388
-519545
-518714
-517891
-517084
-516279
-515501
-514700
-513973
-513132
-512539
-511307
-723538
-716158
-712108
-706552
-701996
-697129
-692624
-688125
-683809
-679577
-675475
-671472
-667578
-663782
-660085
-656481
-652968
-649542
-646201
-642941
-639760
-636656
-633625
-630665
-627775
-624952
-622193
-619497
-616861
-614284
-611765
-609300
-606889
-604530
-602222
-599963
-597751
-595585
-593464
-591387
-589352
-587358
-585403
-583487
-581609
-579767
-577961
-576189
-574450
-572744
-571070
-569427
-567813
-566229
-564672
-563144
-561640
-560165
-558718
-557294
-555897
-554521
-553170
-551841
-550534
-549248
-547984
-546739
-545515
-544310
-543124
-541957
-540807
-539676
-538562
-537465
-536384
-535319
-534270
-533237
-532218
-531214
-530225
-529249
-528287
-527338
-526402
-525479
-524568
-523669
-522783
-521907
-521047
-520188
-519359
-518506
-517729
-516837
-516196
-514914
-740025
-732242
-727913
-722027
-717182
-712017
-707231
-702454
-697870
-693376
-689019
-684768
-680632
-676601
-672674
-668846
-665115
-661476
-657927
-654465
-651086
-647789
-644570
-641426
-638356
-635357
-632426
-629563
-626763
-624026
-621349
-618731
-616170
-613665
-611213
-608813
-606463
-604163
-601910
-599703
-597541
-595423
-593347
-591311
-589316
-587359
-585441
-583558
-581712
-579899
-578121
-576375
-574661
-572978
-571325
-569701
-568106
-566540
-565002
-563490
-562005
-560544
-559108
-557696
-556308
-554942
-553599
-552277
-550977
-549697
-548438
-547198
-545977
-544776
-543592
-542427
-541279
-540148
-539034
-537937
-536855
-535789
-534738
-533702
-532680
-531672
-530679
-529698
-528732
-527777
-526837
-525907
-524993
-524083
-523201
-522297
-521470
-520528
-519839
-518508
-756441
-748258
-743651
-737438
-732303
-726842
-721777
-716723
-711872
-707117
-702506
-698008
-693631
-689365
-685210
-681159
-677210
-673360
-669604
-665940
-662365
-658875
-655468
-652142
-648892
-645718
-642617
-639586
-636623
-633727
-630894
-628123
-625412
-622760
-620165
-617625
-615138
-612703
-610319
-607984
-605696
-603454
-601257
-599103
-596991
-594920
-592889
-590897
-588942
-587024
-585142
-583294
-581481
-579699
-577950
-576232
-574545
-572887
-571259
-569659
-568086
-566540
-565021
-563527
-562057
-560612
-559191
-557792
-556416
-555062
-553729
-552417
-551125
-549854
-548602
-547368
-546154
-544957
-543779
-542617
-541472
-540344
-539232
-538136
-537055
-535989
-534938
-533901
-532878
-531868
-530874
-529890
-528923
-527960
-527028
-526073
-525196
-524203
-523467
-522086
-772784
-764202
-759319
-752779
-747357
-741601
-736257
-730927
-725811
-720796
-715933
-711188
-706572
-702073
-697690
-693417
-689252
-685190
-681229
-677364
-673593
-669912
-666318
-662809
-659382
-656034
-652762
-649565
-646440
-643384
-640396
-637473
-634613
-631816
-629077
-626398
-623774
-621206
-618691
-616228
-613814
-611449
-609131
-606859
-604632
-602447
-600305
-598203
-596141
-594118
-592132
-590183
-588270
-586391
-584546
-582734
-580954
-579206
-577488
-575800
-574141
-572510
-570907
-569331
-567781
-566257
-564757
-563282
-561831
-560402
-558997
-557613
-556251
-554909
-553589
-552288
-551007
-549745
-548502
-547277
-546069
-544879
-543707
-542550
-541410
-540286
-539178
-538084
-537006
-535941
-534893
-533855
-532836
-531821
-530837
-529831
-528905
-527862
-527079
-525650
-789050
-780071
-774912
-768047
-762340
-756290
-750668
-745065
-739683
-734410
-729296
-724306
-719451
-714720
-710110
-705617
-701236
-696965
-692798
-688734
-684767
-680896
-677117
-673426
-669821
-666300
-662859
-659497
-656209
-652995
-649852
-646778
-643770
-640827
-637946
-635128
-632367
-629668
-627022
-624432
-621894
-619407
-616969
-614579
-612236
-609939
-607685
-605475
-603306
-601178
-599089
-597039
-595027
-593051
-591111
-589205
-587333
-585494
-583687
-581912
-580167
-578452
-576766
-575108
-573478
-571875
-570298
-568746
-567220
-565718
-564239
-562784
-561352
-559941
-558552
-557184
-555837
-554510
-553202
-551914
-550645
-549393
-548160
-546944
-545745
-544563
-543398
-542248
-541114
-539995
-538892
-537802
-536730
-535664
-534629
-533572
-532596
-531504
-530673
-529196
-805233
-795859
-790427
-783238
-777247
-770905
-765007
-759131
-753486
-747956
-742591
-737358
-732266
-727303
-722468
-717755
-713161
-708680
-704310
-700047
-695886
-691825
-687861
-683990
-680209
-676515
-672906
-669379
-665931
-662559
-659262
-656037
-652882
-649795
-646773
-643817
-640920
-638089
-635313
-632597
-629934
-627326
-624768
-622261
-619803
-617393
-615029
-612710
-610435
-608203
-606012
-603862
-601751
-599678
-597643
-595644
-593680
-591751
-589856
-587993
-586163
-584364
-582595
-580856
-579146
-577465
-575811
-574183
-572582
-571007
-569456
-567930
-566427
-564948
-563491
-562056
-560643
-559251
-557880
-556529
-555197
-553885
-552591
-551316
-550059
-548819
-547597
-546391
-545202
-544029
-542872
-541729
-540605
-539487
-538401
-537295
-536269
-535128
-534249
-532725
-821331
-811564
-805860
-798350
-792075
-785443
-779270
-773123
-767217
-761430
-755817
-750341
-745013
-739820
-734761
-729830
-725022
-720334
-715761
-711300
-706946
-702697
-698549
-694498
-690541
-686676
-682900
-679209
-675601
-672073
-668622
-665247
-661944
-658714
-655548
-652455
-649417
-646462
-643556
-640717
-637931
-635202
-632526
-629903
-627330
-624808
-622334
-619908
-617527
-615191
-612898
-610648
-608439
-606270
-604140
-602048
-599994
-597975
-595992
-594043
-592127
-590245
-588394
-586574
-584785
-583025
-581294
-579592
-577916
-576268
-574645
-573048
-571476
-569928
-568404
-566903
-565424
-563968
-562533
-561119
-559726
-558353
-556999
-555665
-554350
-553053
-551774
-550513
-549269
-548041
-546831
-545635
-544459
-543290
-542154
-540997
-539923
-538732
-537807
-536236
-837340
-827182
-821207
-813377
-806821
-799899
-793454
-787037
-780870
-774829
-768969
-763252
-757689
-752268
-746986
-741837
-736817
-731923
-727148
-722490
-717945
-713508
-709177
-704948
-700817
-696781
-692838
-688984
-685217
-681534
-677931
-674408
-670959
-667586
-664281
-661052
-657882
-654796
-651762
-648797
-645886
-643036
-640242
-637502
-634816
-632182
-629599
-627065
-624579
-622140
-619746
-617397
-615090
-612826
-610602
-608418
-606272
-604165
-602094
-600058
-598058
-596092
-594159
-592260
-590392
-588555
-586748
-584970
-583221
-581500
-579806
-578138
-576497
-574881
-573289
-571722
-570178
-568658
-567160
-565684
-564229
-562796
-561383
-559990
-558617
-557263
-555928
-554611
-553313
-552031
-550768
-549520
-548292
-547072
-545885
-544679
-543556
-542317
-541344
-539727
-853255
-842709
-836464
-828317
-821481
-814272
-807555
-800870
-794444
-788150
-782044
-776087
-770292
-764642
-759139
-753774
-748544
-743444
-738469
-733616
-728880
-724257
-719744
-715337
-711032
-706827
-702719
-698703
-694778
-690940
-687186
-683514
-679919
-676403
-672949
-669587
-666242
-663069
-659903
-656824
-653792
-650824
-647912
-645058
-642259
-639514
-636822
-634181
-631591
-629049
-626555
-624106
-621703
-619343
-617026
-614750
-612515
-610318
-608160
-606040
-603955
-601907
-599892
-597913
-595966
-594052
-592169
-590317
-588495
-586702
-584937
-583199
-581489
-579805
-578147
-576514
-574905
-573321
-571760
-570222
-568707
-567213
-565741
-564290
-562859
-561449
-560058
-558686
-557333
-555998
-554682
-553381
-552103
-550832
-549595
-548339
-547168
-545880
-544860
-543198
-869073
-858141
-851628
-843165
-836051
-828557
-821570
-814618
-807936
-801390
-795039
-788845
-782817
-776942
-771218
-765638
-760199
-754895
-749721
-744673
-739747
-734939
-730246
-725662
-721185
-716812
-712539
-708363
-704281
-700289
-696386
-692567
-688832
-685173
-681593
-678087
-674645
-671321
-668026
-664815
-661659
-658568
-655538
-652568
-649656
-646801
-644001
-641254
-638560
-635916
-633322
-630775
-628276
-625821
-623411
-621044
-618719
-616434
-614189
-611983
-609814
-607683
-605586
-603529
-601505
-599515
-597557
-595632
-593737
-591872
-590036
-588229
-586450
-584699
-582974
-581276
-579603
-577955
-576332
-574733
-573157
-571603
-570072
-568563
-567076
-565609
-564162
-562736
-561329
-559941
-558572
-557220
-555890
-554568
-553282
-551977
-550757
-549422
-548355
-546648
-884790
-873475
-866696
-857918
-850528
-842750
-835496
-828279
-821341
-814545
-807952
-801520
-795262
-789162
-783220
-777427
-771780
-766272
-760901
-755660
-750546
-745554
-740681
-735922
-731274
-726733
-722297
-717961
-713723
-709579
-705528
-701564
-697686
-693887
-690146
-686515
-682662
-679481
-676057
-672745
-669471
-666261
-663115
-660030
-657007
-654042
-651134
-648282
-645484
-642739
-640046
-637402
-634806
-632258
-629756
-627298
-624884
-622513
-620182
-617892
-615639
-613427
-611248
-609112
-607011
-604945
-602912
-600913
-598945
-597009
-595103
-593227
-591380
-589562
-587771
-586008
-584271
-582560
-580875
-579214
-577578
-575966
-574376
-572810
-571265
-569742
-568240
-566759
-565299
-563858
-562437
-561033
-559653
-558281
-556945
-555592
-554323
-552941
-551827
-550076
-900402
-888706
-881663
-872574
-864909
-856849
-849328
-841848
-834656
-827612
-820778
-814111
-807624
-801301
-795142
-789137
-783283
-777574
-772006
-766573
-761272
-756098
-751046
-746113
-741295
-736588
-731989
-727495
-723102
-718806
-714608
-710498
-706485
-702542
-698712
-694880
-691266
-687696
-684116
-680641
-677239
-673905
-670642
-667442
-664307
-661233
-658219
-655263
-652362
-649517
-646724
-643984
-641293
-638652
-636058
-633511
-631008
-628549
-626132
-623757
-621417
-619124
-616849
-614652
-612473
-610336
-608231
-606159
-604120
-602112
-600137
-598192
-596277
-594392
-592536
-590708
-588908
-587135
-585388
-583666
-581970
-580299
-578651
-577027
-575426
-573848
-572291
-570756
-569242
-567749
-566276
-564821
-563390
-561969
-560584
-559182
-557866
-556436
-555275
-553481
-915906
-903831
-896526
-887127
-879189
-870850
-863065
-855323
-847879
-840588
-833515
-826615
-819900
-813356
-806980
-800765
-794706
-788797
-783034
-777411
-771924
-766568
-761339
-756233
-751246
-746374
-741614
-736962
-732416
-727971
-723631
-719380
-715252
-711175
-707361
-703334
-698710
-695773
-692240
-688482
-684975
-681498
-678120
-674803
-671558
-668375
-665255
-662195
-659193
-656247
-653357
-650520
-647735
-645002
-642317
-639681
-637091
-634547
-632046
-629590
-627171
-624801
-622449
-620159
-617909
-615692
-613515
-611369
-609258
-607180
-605135
-603122
-601140
-599189
-597268
-595376
-593512
-591677
-589869
-588087
-586331
-584601
-582896
-581215
-579558
-577925
-576314
-574725
-573158
-571612
-570088
-568582
-567101
-565630
-564197
-562747
-561383
-559906
-558699
-556862
-931297
-918846
-911281
-901574
-893366
-884749
-876701
-868700
-861006
-853470
-846159
-839027
-832087
-825323
-818733
-812309
-806046
-799939
-793982
-788170
-782498
-776962
-771557
-766279
-761124
-756089
-751168
-746360
-741660
-737065
-732573
-728179
-723885
-719685
-715576
-711592
-707597
-703649
-699933
-696204
-692582
-689016
-685528
-682105
-678752
-675463
-672239
-669076
-665973
-662928
-659941
-657009
-654131
-651305
-648531
-645806
-643131
-640500
-637917
-635373
-632864
-630406
-627842
-625616
-623293
-621013
-618764
-616544
-614363
-612213
-610099
-608017
-605969
-603951
-601965
-600010
-598083
-596186
-594317
-592476
-590661
-588873
-587110
-585373
-583660
-581972
-580307
-578665
-577045
-575448
-573873
-572316
-570785
-569265
-567783
-566285
-564874
-563351
-562098
-560218
-946572
-933748
-925924
-915912
-907436
-898543
-890235
-881977
-874033
-866255
-858708
-851346
-844182
-837200
-830397
-823766
-817301
-810996
-804848
-798848
-792994
-787278
-781699
-776250
-770928
-765730
-760650
-755686
-750834
-746090
-741452
-736914
-732474
-728128
-723846
-719695
-715318
-711619
-707708
-703908
-700162
-696487
-692886
-689355
-685893
-682498
-679170
-675905
-672702
-669559
-666475
-663448
-660477
-657560
-654697
-651884
-649123
-646409
-643746
-641130
-638554
-636058
-633506
-631015
-628665
-626286
-623971
-621676
-619425
-617206
-615023
-612874
-610759
-608677
-606627
-604608
-602620
-600661
-598732
-596831
-594958
-593112
-591292
-589499
-587731
-585988
-584270
-582574
-580903
-579254
-577628
-576021
-574441
-572872
-571342
-569797
-568339
-566770
-565470
-563549
-961727
-948533
-940453
-930138
-921395
-912229
-903662
-895148
-886959
-878939
-871158
-863568
-856182
-848983
-841969
-835132
-828467
-821967
-815627
-809441
-803406
-797513
-791760
-786142
-780655
-775295
-770057
-764939
-759935
-755044
-750260
-745582
-741003
-736526
-732134
-727851
-723616
-719513
-715491
-711548
-707686
-703898
-700186
-696545
-692977
-689478
-686046
-682680
-679377
-676137
-672958
-669837
-666774
-663767
-660816
-657916
-655076
-652277
-649561
-646840
-644340
-641566
-638732
-636473
-634157
-631559
-629179
-626782
-624459
-622164
-619912
-617695
-615514
-613366
-611252
-609170
-607120
-605101
-603111
-601151
-599220
-597317
-595441
-593593
-591770
-589973
-588201
-586453
-584730
-583030
-581353
-579697
-578068
-576451
-574873
-573281
-571776
-570161
-568816
-566854
-976758
-963198
-954863
-944248
-935241
-925803
-916980
-908213
-899779
-891520
-883507
-875690
-868084
-860670
-853447
-846406
-839542
-832848
-826320
-819949
-813736
-807664
-801740
-795953
-790302
-784782
-779387
-774116
-768963
-763924
-758996
-754177
-749458
-744844
-740312
-735898
-731518
-727330
-723177
-719127
-715147
-711249
-707426
-703679
-700004
-696400
-692866
-689399
-685998
-682661
-679387
-676173
-673018
-669920
-666879
-663892
-660959
-658074
-655246
-652450
-649726
-646984
-644380
-641839
-639251
-636737
-634260
-631824
-629429
-627073
-624754
-622472
-620226
-618015
-615838
-613695
-611583
-609504
-607455
-605437
-603448
-601488
-599556
-597652
-595775
-593925
-592100
-590300
-588525
-586774
-585048
-583343
-581665
-580000
-578374
-576735
-575184
-573525
-572133
-570131
-991663
-977738
-969151
-958238
-948969
-939262
-930185
-921167
-912490
-903995
-895751
-887710
-879885
-872257
-864827
-857583
-850522
-843635
-836920
-830366
-823975
-817729
-811634
-805681
-799867
-794188
-788638
-783215
-777913
-772730
-767661
-762703
-757850
-753104
-748454
-743909
-739447
-735094
-730825
-726648
-722553
-718541
-714607
-710752
-706971
-703264
-699628
-696062
-692563
-689130
-685762
-682455
-679210
-676023
-672894
-669821
-666803
-663836
-660924
-658053
-655227
-652451
-649585
-647065
-644441
-641869
-639330
-636827
-634366
-631942
-629558
-627210
-624900
-622625
-620386
-618181
-616009
-613869
-611762
-609685
-607639
-605623
-603636
-601677
-599746
-597843
-595965
-594114
-592288
-590487
-588711
-586957
-585231
-583518
-581845
-580160
-578563
-576859
-575422
-573381
-1.00644e+06
-992151
-983314
-972106
-962577
-952603
-943274
-934006
-925089
-916359
-907887
-899623
-891582
-883743
-876107
-868663
-861406
-854329
-847430
-840694
-834141
-827708
-821444
-815323
-809348
-803511
-797808
-792234
-786785
-781458
-776248
-771152
-766165
-761286
-756507
-751836
-747251
-742780
-738392
-734100
-729891
-725767
-721725
-717763
-713878
-710068
-706331
-702666
-699071
-695542
-692080
-688682
-685346
-682071
-678854
-675695
-672593
-669543
-666548
-663601
-660707
-657859
-655060
-652329
-649624
-646972
-644358
-641787
-639257
-636768
-634318
-631906
-629532
-627194
-624893
-622627
-620395
-618196
-616030
-613896
-611794
-609722
-607680
-605667
-603682
-601726
-599797
-597894
-596018
-594167
-592342
-590539
-588765
-587005
-585286
-583555
-581912
-580163
-578681
-576601
-1.02108e+06
-1.00643e+06
-997347
-985847
-976060
-965823
-956243
-946729
-937574
-928611
-919913
-911429
-903172
-895125
-887284
-879641
-872189
-864923
-857837
-850920
-844185
-837593
-831158
-824877
-818741
-812749
-806894
-801171
-795577
-790108
-784758
-779527
-774407
-769399
-764495
-759698
-754998
-750401
-745896
-741486
-737164
-732930
-728779
-724710
-720721
-716810
-712973
-709210
-705518
-701896
-698341
-694852
-691427
-688064
-684762
-681518
-678332
-675201
-672125
-669101
-666124
-663205
-660316
-657517
-654742
-652022
-649340
-646702
-644105
-641550
-639034
-636558
-634121
-631722
-629359
-627032
-624740
-622483
-620260
-618069
-615910
-613783
-611686
-609619
-607582
-605573
-603593
-601639
-599713
-597812
-595939
-594088
-592266
-590459
-588694
-586918
-585229
-583437
-581909
-579792
-1.03558e+06
-1.02058e+06
-1.01125e+06
-999459
-989417
-978917
-969091
-959332
-949941
-940747
-931825
-923122
-914653
-906398
-898355
-890515
-882870
-875418
-868152
-861062
-854234
-847387
-840784
-834339
-828044
-821899
-815893
-810024
-804285
-798675
-793188
-787821
-782570
-777433
-772403
-767482
-762662
-757946
-753325
-748801
-744368
-740024
-735766
-731592
-727500
-723488
-719553
-715692
-711905
-708190
-704543
-700964
-697450
-694000
-690613
-687286
-684018
-680807
-677651
-674551
-671503
-668509
-665563
-662673
-659828
-657031
-654279
-651572
-648908
-646287
-643707
-641167
-638667
-636206
-633782
-631396
-629045
-626730
-624449
-622202
-619987
-617805
-615654
-613534
-611445
-609384
-607352
-605349
-603373
-601423
-599501
-597603
-595734
-593881
-592069
-590248
-588515
-586679
-585107
-582952
-1.04994e+06
-1.03459e+06
-1.02501e+06
-1.01294e+06
-1.00264e+06
-991884
-981812
-971812
-962187
-952765
-943621
-934702
-926022
-917562
-909319
-901284
-893448
-885808
-878352
-871071
-863999
-857093
-850306
-843711
-837258
-830961
-824805
-818790
-812909
-807159
-801536
-796036
-790655
-785389
-780236