/*--------------------------------*- C++ -*----------------------------------*\
| =========                 |                                                 |
| \\      /  F ield         | foam-extend: Open Source CFD                    |
|  \\    /   O peration     | Version:     4.1                                |
|   \\  /    A nd           | Web:         http://www.foam-extend.org         |
|    \\/     M anipulation  |                                                 |
\*---------------------------------------------------------------------------*/
FoamFile
{
    version     2.0;
    format      ascii;
    class       volScalarField;
    location    "10";
    object      sigmaEq;
}
// * * * * * * * * * * * * * * * * * * * * * * * * * * * * * * * * * * * * * //

dimensions      [1 -1 -2 0 0 0 0];

internalField   nonuniform List<scalar> 
100000
(
4.86098e+06
4.92475e+06
4.96029e+06
4.99231e+06
5.02118e+06
5.04701e+06
5.07003e+06
5.09012e+06
5.10745e+06
5.12226e+06
5.13472e+06
5.14479e+06
5.15257e+06
5.15847e+06
5.16241e+06
5.16443e+06
5.16471e+06
5.16337e+06
5.16057e+06
5.15636e+06
5.15083e+06
5.14397e+06
5.13612e+06
5.12716e+06
5.11719e+06
5.10627e+06
5.09451e+06
5.08199e+06
5.06876e+06
5.05476e+06
5.04028e+06
5.02465e+06
5.00963e+06
4.99415e+06
4.9771e+06
4.96019e+06
4.94275e+06
4.9251e+06
4.90715e+06
4.88896e+06
4.87055e+06
4.85191e+06
4.83307e+06
4.81406e+06
4.79492e+06
4.77567e+06
4.75632e+06
4.71939e+06
4.59716e+06
4.48792e+06
4.39097e+06
4.30571e+06
4.23146e+06
4.16766e+06
4.11374e+06
4.06917e+06
4.03341e+06
4.00598e+06
4.00061e+06
4.02362e+06
4.01972e+06
4.02234e+06
4.03147e+06
4.04677e+06
4.06794e+06
4.09467e+06
4.12674e+06
4.16389e+06
4.20587e+06
4.25246e+06
4.30344e+06
4.334e+06
4.31665e+06
4.29947e+06
4.28245e+06
4.2656e+06
4.24894e+06
4.23246e+06
4.21616e+06
4.20008e+06
4.18417e+06
4.16846e+06
4.15297e+06
4.1377e+06
4.1227e+06
4.10797e+06
4.0935e+06
4.07935e+06
4.06553e+06
4.05206e+06
4.039e+06
4.02639e+06
4.01432e+06
4.00285e+06
3.99209e+06
3.98206e+06
3.97265e+06
3.96436e+06
3.95274e+06
3.94615e+06
4.87236e+06
4.9307e+06
4.96717e+06
4.99987e+06
5.0296e+06
5.05592e+06
5.07952e+06
5.10019e+06
5.11794e+06
5.13319e+06
5.14596e+06
5.15639e+06
5.16445e+06
5.17053e+06
5.17469e+06
5.17695e+06
5.17743e+06
5.17627e+06
5.17354e+06
5.16941e+06
5.164e+06
5.15724e+06
5.1494e+06
5.1405e+06
5.13058e+06
5.1197e+06
5.10797e+06
5.09546e+06
5.08224e+06
5.06836e+06
5.05384e+06
5.03871e+06
5.02745e+06
5.00689e+06
4.99032e+06
4.97334e+06
4.95599e+06
4.9383e+06
4.92033e+06
4.9021e+06
4.88363e+06
4.86495e+06
4.7183e+06
4.52766e+06
4.35405e+06
4.19649e+06
4.05428e+06
3.92943e+06
3.82001e+06
3.71687e+06
3.62589e+06
3.54646e+06
3.4779e+06
3.41963e+06
3.37103e+06
3.33152e+06
3.30063e+06
3.2777e+06
3.29818e+06
3.30206e+06
3.30237e+06
3.30926e+06
3.32237e+06
3.34138e+06
3.366e+06
3.39595e+06
3.43099e+06
3.47091e+06
3.51547e+06
3.56447e+06
3.6149e+06
3.66526e+06
3.72299e+06
3.78699e+06
3.8545e+06
3.92536e+06
3.9994e+06
4.07648e+06
4.15641e+06
4.20841e+06
4.19236e+06
4.17649e+06
4.16082e+06
4.14535e+06
4.13011e+06
4.1151e+06
4.10032e+06
4.08576e+06
4.07145e+06
4.05738e+06
4.04354e+06
4.0299e+06
4.01643e+06
4.00299e+06
3.98948e+06
3.97561e+06
3.96122e+06
3.94577e+06
3.92959e+06
3.91714e+06
4.88352e+06
4.93751e+06
4.97471e+06
5.00818e+06
5.03841e+06
5.06525e+06
5.08914e+06
5.11029e+06
5.1285e+06
5.14401e+06
5.15701e+06
5.16769e+06
5.17612e+06
5.18225e+06
5.18662e+06
5.1889e+06
5.18958e+06
5.18849e+06
5.18587e+06
5.18179e+06
5.17644e+06
5.16977e+06
5.16191e+06
5.15301e+06
5.14312e+06
5.13229e+06
5.12058e+06
5.1081e+06
5.09487e+06
5.08106e+06
5.06649e+06
5.05188e+06
5.03556e+06
5.01874e+06
5.00259e+06
4.98549e+06
4.96821e+06
4.95051e+06
4.81325e+06
4.55462e+06
4.31721e+06
4.10279e+06
3.91811e+06
3.74252e+06
3.57683e+06
3.42735e+06
3.29314e+06
3.18959e+06
3.17823e+06
3.25161e+06
3.35187e+06
3.44291e+06
3.52495e+06
3.59828e+06
3.66316e+06
3.71994e+06
3.7689e+06
3.81073e+06
3.84474e+06
3.83225e+06
3.81327e+06
3.7888e+06
3.75918e+06
3.7247e+06
3.68563e+06
3.64228e+06
3.59488e+06
3.54368e+06
3.48895e+06
3.43092e+06
3.36984e+06
3.32924e+06
3.3349e+06
3.34108e+06
3.34776e+06
3.35492e+06
3.36251e+06
3.42664e+06
3.50214e+06
3.57337e+06
3.65425e+06
3.74173e+06
3.83144e+06
3.92325e+06
4.01696e+06
4.11261e+06
4.10551e+06
4.09046e+06
4.07556e+06
4.06078e+06
4.0461e+06
4.03144e+06
4.01674e+06
4.00187e+06
3.98675e+06
3.97119e+06
3.95521e+06
3.9385e+06
3.92208e+06
3.90682e+06
4.89507e+06
4.94525e+06
4.9828e+06
5.01688e+06
5.04751e+06
5.07489e+06
5.09899e+06
5.12044e+06
5.13893e+06
5.15473e+06
5.16785e+06
5.17865e+06
5.18726e+06
5.19357e+06
5.19799e+06
5.20041e+06
5.20109e+06
5.2001e+06
5.19756e+06
5.19349e+06
5.18814e+06
5.18153e+06
5.17369e+06
5.16478e+06
5.15486e+06
5.14401e+06
5.13229e+06
5.11978e+06
5.10652e+06
5.09259e+06
5.07802e+06
5.06291e+06
5.04715e+06
5.03082e+06
5.01417e+06
4.85273e+06
4.53486e+06
4.24409e+06
3.99418e+06
3.76488e+06
3.53752e+06
3.3818e+06
3.51691e+06
3.69779e+06
3.86651e+06
4.02315e+06
4.16784e+06
4.30085e+06
4.4178e+06
4.52829e+06
4.63036e+06
4.72123e+06
4.80206e+06
4.87331e+06
4.9354e+06
4.98881e+06
5.03391e+06
5.07649e+06
5.08197e+06
5.06142e+06
5.03495e+06
5.00282e+06
4.96534e+06
4.92283e+06
4.87555e+06
4.82379e+06
4.76778e+06
4.70777e+06
4.64401e+06
4.57671e+06
4.50608e+06
4.43237e+06
4.35576e+06
4.27649e+06
4.19475e+06
4.11073e+06
4.029e+06
3.94968e+06
3.86311e+06
3.80311e+06
3.81037e+06
3.81783e+06
3.82558e+06
3.8335e+06
3.84173e+06
3.83495e+06
3.83408e+06
3.84164e+06
3.84965e+06
3.85778e+06
3.96017e+06
4.03207e+06
4.01649e+06
4.00072e+06
3.98472e+06
3.96843e+06
3.95192e+06
3.93506e+06
3.91868e+06
3.90369e+06
5.30361e+06
5.21759e+06
5.1305e+06
5.05218e+06
5.05703e+06
5.08477e+06
5.10904e+06
5.13059e+06
5.14925e+06
5.1652e+06
5.17844e+06
5.18932e+06
5.19798e+06
5.20449e+06
5.20883e+06
5.2114e+06
5.21204e+06
5.21107e+06
5.20857e+06
5.20451e+06
5.19912e+06
5.19251e+06
5.18467e+06
5.17573e+06
5.16575e+06
5.15487e+06
5.14313e+06
5.13059e+06
5.1173e+06
5.10331e+06
5.08866e+06
5.07342e+06
5.05768e+06
4.68424e+06
4.32758e+06
4.02356e+06
3.84996e+06
3.85368e+06
3.97427e+06
4.21669e+06
4.43763e+06
4.63663e+06
4.83725e+06
5.02408e+06
5.19632e+06
5.35461e+06
5.49949e+06
5.63152e+06
5.75128e+06
5.76686e+06
5.74267e+06
5.71848e+06
5.69427e+06
5.67006e+06
5.64589e+06
5.62173e+06
5.59778e+06
5.58305e+06
5.55944e+06
5.53565e+06
5.51193e+06
5.48832e+06
5.46483e+06
5.44146e+06
5.4182e+06
5.39508e+06
5.37211e+06
5.34927e+06
5.32658e+06
5.30405e+06
5.28169e+06
5.25949e+06
5.23745e+06
5.21559e+06
5.19395e+06
5.18076e+06
5.16764e+06
5.09445e+06
5.00506e+06
4.91364e+06
4.82065e+06
4.72605e+06
4.63015e+06
4.53287e+06
4.43442e+06
4.3352e+06
4.33996e+06
4.34249e+06
4.34214e+06
4.35034e+06
4.35914e+06
4.34523e+06
4.34027e+06
4.34061e+06
4.34108e+06
4.34173e+06
4.34269e+06
4.34393e+06
4.3375e+06
4.31804e+06
6.32774e+06
6.25764e+06
6.1802e+06
6.10709e+06
6.03959e+06
5.9803e+06
5.92552e+06
5.87517e+06
5.82875e+06
5.78592e+06
5.74632e+06
5.7095e+06
5.67576e+06
5.64439e+06
5.61538e+06
5.58846e+06
5.56354e+06
5.5404e+06
5.51898e+06
5.49902e+06
5.48042e+06
5.46317e+06
5.44712e+06
5.43216e+06
5.41817e+06
5.4051e+06
5.39288e+06
5.38148e+06
5.37081e+06
5.36079e+06
5.28665e+06
4.85274e+06
4.46707e+06
4.51511e+06
4.51811e+06
4.6467e+06
4.92957e+06
5.22089e+06
5.48369e+06
5.71752e+06
5.93365e+06
6.07729e+06
6.03847e+06
5.99974e+06
5.96113e+06
5.92268e+06
5.88438e+06
5.84628e+06
5.80837e+06
5.7734e+06
5.74813e+06
5.723e+06
5.69804e+06
5.67319e+06
5.64854e+06
5.62402e+06
5.60098e+06
5.58534e+06
5.56166e+06
5.53804e+06
5.5146e+06
5.49134e+06
5.46828e+06
5.44542e+06
5.42274e+06
5.40025e+06
5.37797e+06
5.35588e+06
5.33399e+06
5.31231e+06
5.29084e+06
5.26958e+06
5.24853e+06
5.22768e+06
5.20748e+06
5.18751e+06
5.16737e+06
5.14726e+06
5.12778e+06
5.10768e+06
5.08777e+06
5.06896e+06
5.04983e+06
5.03127e+06
5.01228e+06
4.99267e+06
4.97343e+06
4.9546e+06
4.93623e+06
4.91815e+06
4.80334e+06
4.72031e+06
4.72654e+06
4.73286e+06
4.7393e+06
4.74593e+06
4.83125e+06
4.97057e+06
5.11303e+06
5.33208e+06
8.31248e+06
8.27946e+06
8.24062e+06
8.21164e+06
8.10837e+06
7.99491e+06
7.89407e+06
7.80602e+06
7.7293e+06
7.66314e+06
7.6069e+06
7.55912e+06
7.51973e+06
7.48788e+06
7.46264e+06
7.44378e+06
7.43051e+06
7.42249e+06
7.41929e+06
7.4204e+06
7.42542e+06
7.43404e+06
7.44591e+06
7.46076e+06
7.47828e+06
7.49818e+06
7.43729e+06
6.87637e+06
6.35594e+06
5.8737e+06
5.448e+06
5.08515e+06
4.94298e+06
5.28199e+06
5.6265e+06
5.94884e+06
6.1392e+06
6.11314e+06
6.08684e+06
6.06069e+06
6.03466e+06
6.00863e+06
5.9826e+06
5.95662e+06
5.93066e+06
5.90479e+06
5.87896e+06
5.85323e+06
5.82764e+06
5.80242e+06
5.7773e+06
5.75202e+06
5.72693e+06
5.70195e+06
5.67715e+06
5.65254e+06
5.63879e+06
5.61869e+06
5.59472e+06
5.5709e+06
5.54728e+06
5.52384e+06
5.50059e+06
5.47752e+06
5.45465e+06
5.43197e+06
5.40948e+06
5.3872e+06
5.36511e+06
5.34323e+06
5.32156e+06
5.30008e+06
5.2788e+06
5.25774e+06
5.23683e+06
5.20784e+06
5.17915e+06
5.15087e+06
5.12279e+06
5.07579e+06
5.06772e+06
5.04075e+06
5.01394e+06
4.98764e+06
4.9501e+06
4.90826e+06
4.90973e+06
4.89469e+06
4.88278e+06
4.87092e+06
4.85897e+06
4.84699e+06
4.91097e+06
5.02828e+06
5.14621e+06
5.27067e+06
5.40619e+06
5.53481e+06
5.66544e+06
5.79514e+06
1.06509e+07
1.06451e+07
1.063e+07
1.06221e+07
1.06153e+07
1.06127e+07
1.0612e+07
1.06134e+07
1.06169e+07
1.06219e+07
1.06287e+07
1.06364e+07
1.06452e+07
1.06551e+07
1.06657e+07
1.0677e+07
1.06886e+07
1.07007e+07
1.0713e+07
1.07257e+07
1.07384e+07
1.07512e+07
1.0764e+07
1.0333e+07
9.64425e+06
8.99848e+06
8.41003e+06
7.89332e+06
7.36494e+06
6.87271e+06
6.47977e+06
6.45282e+06
6.44585e+06
6.1033e+06
6.07301e+06
6.04215e+06
6.01078e+06
5.97898e+06
5.95901e+06
5.94943e+06
5.93951e+06
5.92928e+06
5.91875e+06
5.90795e+06
5.89688e+06
5.88558e+06
5.87402e+06
5.86226e+06
5.85029e+06
5.83544e+06
5.81096e+06
5.78641e+06
5.76187e+06
5.73733e+06
5.71283e+06
5.69468e+06
5.68316e+06
5.65888e+06
5.63457e+06
5.61033e+06
5.58615e+06
5.56208e+06
5.53811e+06
5.51425e+06
5.49051e+06
5.46691e+06
5.44343e+06
5.42009e+06
5.39691e+06
5.37387e+06
5.35097e+06
5.32824e+06
5.30565e+06
5.28322e+06
5.26094e+06
5.23883e+06
5.21677e+06
5.19507e+06
5.17309e+06
5.15211e+06
5.13126e+06
5.10965e+06
5.0887e+06
5.06751e+06
5.04706e+06
5.02747e+06
5.00713e+06
4.98653e+06
5.06479e+06
5.17055e+06
5.27727e+06
5.39039e+06
5.51404e+06
5.6315e+06
5.74127e+06
5.85177e+06
5.88358e+06
5.86143e+06
5.83913e+06
5.81271e+06
1.16234e+07
1.17477e+07
1.18568e+07
1.19546e+07
1.20404e+07
1.2116e+07
1.2182e+07
1.22385e+07
1.22866e+07
1.23268e+07
1.23596e+07
1.23856e+07
1.24051e+07
1.24186e+07
1.24269e+07
1.24301e+07
1.24285e+07
1.24224e+07
1.24123e+07
1.23984e+07
1.19133e+07
1.10572e+07
1.02497e+07
9.52926e+06
8.8424e+06
8.16572e+06
7.61183e+06
7.59417e+06
7.57553e+06
7.55599e+06
7.53564e+06
7.51449e+06
7.19424e+06
6.80165e+06
6.45489e+06
6.16973e+06
6.14837e+06
6.12655e+06
6.10432e+06
6.08172e+06
6.05878e+06
6.03557e+06
6.01208e+06
5.98839e+06
5.96449e+06
5.94042e+06
5.91621e+06
5.89186e+06
5.86745e+06
5.84293e+06
5.81839e+06
5.7938e+06
5.7692e+06
5.7446e+06
5.72138e+06
5.71103e+06
5.6901e+06
5.66562e+06
5.64122e+06
5.61687e+06
5.5926e+06
5.56844e+06
5.54439e+06
5.52046e+06
5.49663e+06
5.47294e+06
5.44939e+06
5.42596e+06
5.40268e+06
5.37955e+06
5.35657e+06
5.33373e+06
5.31106e+06
5.28853e+06
5.26614e+06
5.24392e+06
5.22185e+06
5.19993e+06
5.17823e+06
5.15662e+06
5.1353e+06
5.11396e+06
5.09292e+06
5.10098e+06
5.20068e+06
5.30173e+06
5.4038e+06
5.51432e+06
5.63382e+06
5.74283e+06
5.84856e+06
5.95509e+06
5.98542e+06
5.96257e+06
5.93986e+06
5.91723e+06
5.89475e+06
5.87241e+06
5.84999e+06
5.82355e+06
1.05758e+07
1.17567e+07
1.18663e+07
1.19646e+07
1.2051e+07
1.21269e+07
1.21931e+07
1.22499e+07
1.22982e+07
1.23386e+07
1.23715e+07
1.23978e+07
1.24174e+07
1.24311e+07
1.24393e+07
1.24426e+07
1.2441e+07
1.23527e+07
1.13487e+07
1.03995e+07
9.55464e+06
8.76102e+06
7.969e+06
7.65903e+06
7.64588e+06
7.63149e+06
7.61598e+06
7.59935e+06
7.58167e+06
7.56301e+06
7.54343e+06
7.52303e+06
7.50178e+06
7.44974e+06
7.09995e+06
6.76309e+06
6.46424e+06
6.18661e+06
6.11104e+06
6.08841e+06
6.06544e+06
6.04218e+06
6.01866e+06
5.9949e+06
5.97096e+06
5.94683e+06
5.92258e+06
5.89818e+06
5.8737e+06
5.84914e+06
5.82452e+06
5.79987e+06
5.77518e+06
5.75043e+06
5.73613e+06
5.71931e+06
5.69541e+06
5.67157e+06
5.64656e+06
5.62224e+06
5.59778e+06
5.57357e+06
5.54941e+06
5.52539e+06
5.5015e+06
5.47773e+06
5.45409e+06
5.43059e+06
5.40723e+06
5.38401e+06
5.36094e+06
5.33801e+06
5.31524e+06
5.29261e+06
5.27014e+06
5.24783e+06
5.22568e+06
5.20369e+06
5.18939e+06
5.2806e+06
5.37345e+06
5.46787e+06
5.56557e+06
5.67386e+06
5.78448e+06
5.88416e+06
5.985e+06
6.0868e+06
6.08993e+06
6.06624e+06
6.04273e+06
6.01935e+06
5.99615e+06
5.97309e+06
5.95017e+06
5.92737e+06
5.90471e+06
5.88224e+06
5.85971e+06
5.83324e+06
7.21844e+06
8.68488e+06
9.98956e+06
1.12529e+07
1.20623e+07
1.21383e+07
1.22044e+07
1.22614e+07
1.23097e+07
1.235e+07
1.23829e+07
1.2409e+07
1.24287e+07
1.24424e+07
1.24505e+07
1.20683e+07
1.09535e+07
9.92158e+06
9.03163e+06
8.1022e+06
7.68472e+06
7.67744e+06
7.6686e+06
7.65824e+06
7.64639e+06
7.63316e+06
7.61866e+06
7.60299e+06
7.58619e+06
7.56835e+06
7.54952e+06
7.52981e+06
7.50921e+06
7.48782e+06
7.46558e+06
7.40762e+06
7.1058e+06
6.81681e+06
6.55639e+06
6.31735e+06
6.09485e+06
6.04749e+06
6.02393e+06
6.00012e+06
5.97613e+06
5.95194e+06
5.92763e+06
5.89263e+06
5.81839e+06
5.7484e+06
5.68242e+06
5.62032e+06
5.56191e+06
5.51039e+06
5.46841e+06
5.41654e+06
5.31942e+06
5.32168e+06
5.27879e+06
5.23884e+06
5.20157e+06
5.16696e+06
5.13485e+06
5.10515e+06
5.09932e+06
5.09889e+06
5.09898e+06
5.09957e+06
5.10066e+06
5.1022e+06
5.10417e+06
5.10655e+06
5.10933e+06
5.16092e+06
5.26649e+06
5.37458e+06
5.48503e+06
5.59813e+06
5.72205e+06
5.85156e+06
5.97027e+06
6.09065e+06
6.21255e+06
6.30635e+06
6.30885e+06
6.31168e+06
6.26118e+06
6.05357e+06
5.84792e+06
5.6333e+06
5.39221e+06
5.15308e+06
4.91611e+06
4.68151e+06
4.44953e+06
4.2129e+06
3.97957e+06
3.74984e+06
3.52495e+06
3.15232e+06
4.99019e+06
5.73723e+06
6.88195e+06
7.90493e+06
8.82546e+06
9.79912e+06
1.07439e+07
1.1612e+07
1.23209e+07
1.23611e+07
1.23937e+07
1.24195e+07
1.2439e+07
1.19951e+07
1.07503e+07
9.62942e+06
8.63136e+06
7.68426e+06
7.68417e+06
7.68215e+06
7.67817e+06
7.6724e+06
7.66496e+06
7.65592e+06
7.64533e+06
7.63324e+06
7.61975e+06
7.60502e+06
7.58909e+06
7.57207e+06
7.53802e+06
7.36373e+06
7.19805e+06
7.04065e+06
6.89108e+06
6.74903e+06
6.61413e+06
6.48608e+06
6.18247e+06
5.91904e+06
5.72295e+06
5.55263e+06
5.41255e+06
5.29759e+06
5.19571e+06
5.10616e+06
5.02772e+06
4.99614e+06
4.98506e+06
4.97726e+06
5.01135e+06
5.07479e+06
5.13556e+06
5.18821e+06
5.22793e+06
5.13094e+06
5.0144e+06
4.94439e+06
4.90984e+06
4.88777e+06
4.99562e+06
5.21384e+06
5.42183e+06
5.62102e+06
5.81077e+06
5.98946e+06
5.99184e+06
5.87797e+06
5.77091e+06
5.67037e+06
5.57609e+06
5.48783e+06
5.40965e+06
5.34508e+06
5.28251e+06
5.2174e+06
5.15716e+06
5.10158e+06
5.04302e+06
4.88474e+06
4.72984e+06
4.57834e+06
4.43018e+06
4.28536e+06
4.14384e+06
4.02204e+06
3.93049e+06
3.86618e+06
3.81498e+06
3.75844e+06
3.69761e+06
3.63841e+06
3.58114e+06
3.46136e+06
3.31523e+06
3.16996e+06
3.02549e+06
2.88255e+06
2.7398e+06
2.58865e+06
5.0232e+06
5.46652e+06
5.40143e+06
5.34203e+06
5.6049e+06
6.47023e+06
7.29613e+06
8.0542e+06
8.67822e+06
9.3158e+06
9.95131e+06
1.02663e+07
9.38601e+06
8.60989e+06
7.93403e+06
7.54331e+06
7.66673e+06
7.67094e+06
7.67288e+06
7.6727e+06
7.6704e+06
7.66611e+06
7.48312e+06
7.23244e+06
6.99442e+06
6.76846e+06
6.55399e+06
6.39974e+06
6.39819e+06
6.42229e+06
6.49359e+06
6.56122e+06
6.7404e+06
6.97452e+06
7.19717e+06
7.40869e+06
8.00892e+06
8.75159e+06
8.665e+06
8.31094e+06
7.96923e+06
7.47638e+06
6.98358e+06
6.5147e+06
6.06862e+06
5.64634e+06
5.26344e+06
4.91214e+06
4.61641e+06
4.33644e+06
4.07416e+06
3.85498e+06
3.6974e+06
3.54531e+06
3.37966e+06
3.22914e+06
3.09536e+06
2.97291e+06
2.85803e+06
2.76875e+06
2.73444e+06
2.68198e+06
2.57731e+06
2.47843e+06
2.37039e+06
2.19708e+06
2.03282e+06
1.9393e+06
1.86355e+06
1.79611e+06
1.73666e+06
1.68475e+06
1.63995e+06
1.58296e+06
1.52375e+06
1.48764e+06
1.47523e+06
1.48603e+06
1.51854e+06
1.57045e+06
1.63906e+06
1.72155e+06
1.81527e+06
1.91787e+06
2.03306e+06
2.16857e+06
2.26262e+06
2.21915e+06
2.17281e+06
2.11568e+06
2.04153e+06
1.97201e+06
1.87887e+06
1.78388e+06
1.7126e+06
1.64755e+06
1.58844e+06
1.51609e+06
1.45574e+06
1.54945e+06
5.05588e+06
5.50586e+06
5.43798e+06
5.37604e+06
5.31699e+06
5.26161e+06
5.20889e+06
5.15907e+06
5.19059e+06
5.78068e+06
5.01566e+06
3.92838e+06
3.24022e+06
2.90637e+06
3.28375e+06
3.69123e+06
4.08912e+06
4.06614e+06
3.9981e+06
3.9216e+06
3.9196e+06
4.15157e+06
4.6136e+06
5.1316e+06
5.59901e+06
6.03731e+06
6.62879e+06
6.39701e+06
5.95878e+06
5.55389e+06
5.21423e+06
5.01445e+06
4.8199e+06
4.63133e+06
4.44172e+06
4.29195e+06
4.24505e+06
3.9079e+06
3.73047e+06
3.53924e+06
3.24925e+06
2.97179e+06
2.69637e+06
2.43129e+06
2.19074e+06
1.9742e+06
1.79553e+06
1.65258e+06
1.58886e+06
1.61139e+06
1.66981e+06
1.76688e+06
1.91103e+06
2.07952e+06
2.25598e+06
2.3296e+06
2.38262e+06
2.46784e+06
2.57707e+06
2.6934e+06
2.92153e+06
3.25194e+06
3.5745e+06
3.88626e+06
4.18607e+06
4.47313e+06
4.58385e+06
4.57522e+06
4.56756e+06
4.5608e+06
4.55489e+06
4.54983e+06
4.54554e+06
4.54201e+06
4.53498e+06
4.52137e+06
4.50789e+06
4.49453e+06
4.48129e+06
4.46816e+06
4.45512e+06
4.44217e+06
4.42932e+06
4.41655e+06
4.40386e+06
4.42179e+06
4.4939e+06
4.56585e+06
4.6376e+06
4.70163e+06
4.75813e+06
4.81428e+06
4.87008e+06
4.85811e+06
4.81502e+06
4.76913e+06
4.72649e+06
4.68945e+06
4.64009e+06
4.62038e+06
5.08814e+06
5.54461e+06
5.47391e+06
5.40947e+06
5.34793e+06
5.29035e+06
5.2355e+06
5.18367e+06
4.52219e+06
2.65302e+06
1.65599e+06
1.72345e+06
1.7068e+06
1.88581e+06
2.13841e+06
2.25685e+06
1.93921e+06
1.97496e+06
2.1328e+06
2.62275e+06
3.10899e+06
2.63221e+06
2.40138e+06
2.27976e+06
2.15571e+06
2.05963e+06
1.93e+06
2.17445e+06
2.13407e+06
1.97943e+06
1.90669e+06
1.94925e+06
2.13604e+06
2.46253e+06
2.85732e+06
3.28635e+06
4.08183e+06
5.04602e+06
5.23666e+06
5.16827e+06
5.10366e+06
5.04282e+06
4.98533e+06
4.93121e+06
4.88033e+06
4.83433e+06
4.81193e+06
4.79105e+06
4.76237e+06
4.63048e+06
4.50753e+06
4.43415e+06
4.42121e+06
4.4094e+06
4.3986e+06
4.38872e+06
4.37983e+06
4.37185e+06
4.3647e+06
4.35838e+06
4.35285e+06
4.34801e+06
4.33078e+06
4.31338e+06
4.29712e+06
4.28198e+06
4.2679e+06
4.25482e+06
4.24269e+06
4.23149e+06
4.22118e+06
4.21171e+06
4.20305e+06
4.19521e+06
4.18828e+06
4.18207e+06
4.17635e+06
4.17127e+06
4.16679e+06
4.16288e+06
4.15951e+06
4.15666e+06
4.15431e+06
4.15243e+06
4.151e+06
4.15e+06
4.14942e+06
4.14925e+06
4.14947e+06
4.15007e+06
4.15104e+06
4.15239e+06
4.15409e+06
4.15616e+06
4.15857e+06
4.16018e+06
4.14412e+06
4.18217e+06
4.24047e+06
4.2939e+06
5.1201e+06
5.58264e+06
5.50922e+06
5.44229e+06
5.37829e+06
5.31844e+06
5.26148e+06
3.63509e+06
1.87039e+06
1.73613e+06
1.9454e+06
1.80115e+06
1.87497e+06
2.25638e+06
2.94088e+06
3.04405e+06
2.30602e+06
1.98671e+06
1.76573e+06
1.60564e+06
1.58232e+06
2.32871e+06
2.58423e+06
3.14398e+06
3.82357e+06
4.54017e+06
5.44121e+06
5.57771e+06
5.49644e+06
5.42929e+06
5.35828e+06
5.2913e+06
5.22807e+06
5.16844e+06
5.11227e+06
5.05626e+06
5.00305e+06
4.95622e+06
4.91324e+06
4.87298e+06
4.83507e+06
4.79962e+06
4.76646e+06
4.73535e+06
4.70637e+06
4.6794e+06
4.65314e+06
4.59288e+06
4.43731e+06
4.2939e+06
4.26811e+06
4.2473e+06
4.22672e+06
4.20636e+06
4.18632e+06
4.16647e+06
4.14683e+06
4.12748e+06
4.10836e+06
4.08941e+06
4.07069e+06
4.05217e+06
4.03382e+06
4.01568e+06
3.99775e+06
3.98e+06
3.96244e+06
3.94504e+06
3.92781e+06
3.91074e+06
3.89384e+06
3.87712e+06
3.86056e+06
3.84414e+06
3.83198e+06
3.82706e+06
3.82278e+06
3.8191e+06
3.81597e+06
3.81339e+06
3.81134e+06
3.80981e+06
3.80875e+06
3.80814e+06
3.80798e+06
3.80823e+06
3.8089e+06
3.80995e+06
3.81139e+06
3.81321e+06
3.81539e+06
3.81793e+06
3.8208e+06
3.82402e+06
3.81942e+06
3.81604e+06
3.81342e+06
3.81053e+06
3.80856e+06
3.80806e+06
5.15174e+06
5.61995e+06
5.54383e+06
5.4744e+06
5.40804e+06
5.0548e+06
2.89775e+06
1.86423e+06
1.81193e+06
2.69526e+06
4.07419e+06
4.32761e+06
3.3552e+06
3.07402e+06
2.6119e+06
2.17075e+06
2.62917e+06
2.93672e+06
3.67431e+06
4.77218e+06
5.81256e+06
5.76375e+06
5.71647e+06
5.70446e+06
5.68412e+06
5.59033e+06
5.50174e+06
5.41808e+06
5.3409e+06
5.25699e+06
5.17698e+06
5.11237e+06
5.05148e+06
4.99403e+06
4.93998e+06
4.889e+06
4.85412e+06
4.82498e+06
4.79625e+06
4.76817e+06
4.7406e+06
4.71343e+06
4.6868e+06
4.66062e+06
4.6348e+06
4.60945e+06
4.56689e+06
4.42899e+06
4.3043e+06
4.2828e+06
4.26153e+06
4.24052e+06
4.21983e+06
4.19937e+06
4.17915e+06
4.15923e+06
4.13953e+06
4.12005e+06
4.10083e+06
4.08182e+06
4.06299e+06
4.04437e+06
4.02597e+06
4.00776e+06
3.98974e+06
3.97192e+06
3.95429e+06
3.93681e+06
3.91953e+06
3.90243e+06
3.88551e+06
3.86874e+06
3.85213e+06
3.83568e+06
3.81938e+06
3.80323e+06
3.78723e+06
3.77136e+06
3.75562e+06
3.74002e+06
3.72454e+06
3.7092e+06
3.69398e+06
3.6789e+06
3.66395e+06
3.64913e+06
3.63444e+06
3.61988e+06
3.60546e+06
3.59119e+06
3.57057e+06
3.54696e+06
3.52376e+06
3.50172e+06
3.48027e+06
3.45955e+06
3.45646e+06
3.45393e+06
3.45971e+06
3.46407e+06
5.18306e+06
5.65653e+06
5.57775e+06
5.74168e+06
5.657e+06
4.27646e+06
4.08592e+06
5.99794e+06
5.38874e+06
4.62012e+06
3.60586e+06
2.66972e+06
2.99139e+06
3.3428e+06
4.96048e+06
6.09576e+06
6.03606e+06
5.97862e+06
5.9398e+06
5.96114e+06
5.94771e+06
5.83078e+06
5.7315e+06
5.63494e+06
5.50884e+06
5.39433e+06
5.30877e+06
5.22806e+06
5.15187e+06
5.07366e+06
5.03944e+06
5.00594e+06
4.97326e+06
4.94117e+06
4.90975e+06
4.87899e+06
4.8487e+06
4.81915e+06
4.79014e+06
4.76161e+06
4.7337e+06
4.70629e+06
4.6793e+06
4.65282e+06
4.62687e+06
4.58159e+06
4.4401e+06
4.31936e+06
4.29736e+06
4.27565e+06
4.25428e+06
4.23313e+06
4.21226e+06
4.19171e+06
4.1714e+06
4.15132e+06
4.13154e+06
4.112e+06
4.09266e+06
4.07355e+06
4.05468e+06
4.03599e+06
4.01751e+06
3.99925e+06
3.98117e+06
3.96328e+06
3.94558e+06
3.92806e+06
3.91073e+06
3.89358e+06
3.8766e+06
3.8598e+06
3.84317e+06
3.82671e+06
3.8104e+06
3.79423e+06
3.7782e+06
3.76231e+06
3.74657e+06
3.73097e+06
3.71553e+06
3.70022e+06
3.68505e+06
3.67001e+06
3.65509e+06
3.64031e+06
3.62268e+06
3.59785e+06
3.57342e+06
3.54987e+06
3.52709e+06
3.50423e+06
3.48146e+06
3.45909e+06
3.44518e+06
3.43248e+06
3.41989e+06
3.40755e+06
3.39509e+06
3.38233e+06
5.21408e+06
6.73266e+06
8.28264e+06
8.64944e+06
8.57652e+06
7.13814e+06
5.98946e+06
3.77071e+06
3.36266e+06
3.49763e+06
5.1781e+06
6.37838e+06
6.30604e+06
6.23691e+06
6.17665e+06
6.20237e+06
6.22712e+06
6.17656e+06
6.06649e+06
5.94415e+06
5.76977e+06
5.61981e+06
5.51293e+06
5.37821e+06
5.25895e+06
5.21935e+06
5.18077e+06
5.14326e+06
5.10669e+06
5.071e+06
5.03623e+06
5.00216e+06
4.96892e+06
4.93641e+06
4.90442e+06
4.87323e+06
4.84263e+06
4.81259e+06
4.78323e+06
4.75443e+06
4.7261e+06
4.69836e+06
4.6712e+06
4.64438e+06
4.59986e+06
4.45456e+06
4.33434e+06
4.31188e+06
4.28976e+06
4.26789e+06
4.24632e+06
4.22508e+06
4.20409e+06
4.18338e+06
4.16299e+06
4.14284e+06
4.12292e+06
4.10327e+06
4.08388e+06
4.06468e+06
4.04571e+06
4.02697e+06
4.00843e+06
3.99009e+06
3.97194e+06
3.95402e+06
3.93628e+06
3.91874e+06
3.90137e+06
3.88419e+06
3.86719e+06
3.85036e+06
3.83372e+06
3.81724e+06
3.80092e+06
3.78476e+06
3.76873e+06
3.75284e+06
3.73709e+06
3.72151e+06
3.70607e+06
3.69078e+06
3.67564e+06
3.65206e+06
3.6264e+06
3.60131e+06
3.57714e+06
3.55329e+06
3.5293e+06
3.50572e+06
3.489e+06
3.47579e+06
3.46272e+06
3.4498e+06
3.43701e+06
3.42437e+06
3.41184e+06
3.39956e+06
3.38717e+06
3.37449e+06
9.52719e+06
1.20009e+07
1.3484e+07
9.33932e+06
5.03913e+06
3.18219e+06
3.93869e+06
6.16526e+06
6.63923e+06
6.55407e+06
6.47283e+06
6.42696e+06
6.45563e+06
6.48616e+06
6.50057e+06
6.37071e+06
6.18173e+06
5.9728e+06
5.79115e+06
5.59057e+06
5.4339e+06
5.38817e+06
5.34381e+06
5.30089e+06
5.25923e+06
5.21884e+06
5.17953e+06
5.14125e+06
5.10402e+06
5.06767e+06
5.03229e+06
4.99775e+06
4.96389e+06
4.9309e+06
4.89851e+06
4.86675e+06
4.83579e+06
4.80543e+06
4.7756e+06
4.74645e+06
4.71792e+06
4.68978e+06
4.6623e+06
4.6219e+06
4.47229e+06
4.34936e+06
4.32645e+06
4.3038e+06
4.28147e+06
4.2595e+06
4.23778e+06
4.21636e+06
4.19528e+06
4.17447e+06
4.15392e+06
4.13368e+06
4.1137e+06
4.09395e+06
4.07446e+06
4.05521e+06
4.03619e+06
4.01737e+06
3.99875e+06
3.98035e+06
3.96216e+06
3.94418e+06
3.92639e+06
3.90881e+06
3.8914e+06
3.87421e+06
3.85719e+06
3.84036e+06
3.8237e+06
3.80722e+06
3.79089e+06
3.77472e+06
3.75871e+06
3.74286e+06
3.72716e+06
3.70988e+06
3.68289e+06
3.65632e+06
3.63058e+06
3.6055e+06
3.58042e+06
3.55561e+06
3.53419e+06
3.52047e+06
3.50689e+06
3.49346e+06
3.48017e+06
3.46702e+06
3.45401e+06
3.44115e+06
3.42842e+06
3.41584e+06
3.40337e+06
3.39114e+06
3.37881e+06
3.36621e+06
1.46306e+07
1.17499e+07
5.34513e+06
3.90575e+06
5.57708e+06
6.95134e+06
6.84962e+06
6.75331e+06
6.66886e+06
6.69943e+06
6.74412e+06
6.81872e+06
6.73171e+06
6.52614e+06
6.26794e+06
5.96302e+06
5.72927e+06
5.58745e+06
5.5356e+06
5.48561e+06
5.43725e+06
5.39049e+06
5.34515e+06
5.30129e+06
5.25879e+06
5.21758e+06
5.17756e+06
5.13854e+06
5.10064e+06
5.06371e+06
5.02764e+06
4.9926e+06
4.95826e+06
4.92466e+06
4.89188e+06
4.85972e+06
4.82822e+06
4.79752e+06
4.76742e+06
4.73779e+06
4.70894e+06
4.68066e+06
4.64774e+06
4.49383e+06
4.3645e+06
4.34098e+06
4.31785e+06
4.29509e+06
4.27259e+06
4.25042e+06
4.22861e+06
4.20708e+06
4.18584e+06
4.16493e+06
4.1443e+06
4.12392e+06
4.10382e+06
4.08401e+06
4.06445e+06
4.04511e+06
4.02602e+06
4.00714e+06
3.98848e+06
3.97005e+06
3.95183e+06
3.93382e+06
3.916e+06
3.89839e+06
3.88096e+06
3.86374e+06
3.8467e+06
3.82987e+06
3.81321e+06
3.79671e+06
3.78038e+06
3.7642e+06
3.74331e+06
3.71534e+06
3.68788e+06
3.66121e+06
3.63508e+06
3.60898e+06
3.5833e+06
3.56656e+06
3.55246e+06
3.5385e+06
3.52469e+06
3.51103e+06
3.49751e+06
3.48413e+06
3.4709e+06
3.45781e+06
3.44487e+06
3.43206e+06
3.4194e+06
3.40688e+06
3.39446e+06
3.3823e+06
3.37002e+06
3.35749e+06
5.61022e+06
2.72e+06
6.55449e+06
7.20549e+06
7.08948e+06
6.97984e+06
6.9353e+06
6.97074e+06
7.05877e+06
7.13876e+06
6.96964e+06
6.66695e+06
6.27996e+06
5.97592e+06
5.76546e+06
5.70586e+06
5.64855e+06
5.59349e+06
5.54042e+06
5.48928e+06
5.43985e+06
5.39211e+06
5.34585e+06
5.30105e+06
5.25771e+06
5.21564e+06
5.17487e+06
5.13521e+06
5.09657e+06
5.05909e+06
5.02242e+06
4.98668e+06
4.95192e+06
4.91784e+06
4.88449e+06
4.85198e+06
4.8201e+06
4.78888e+06
4.75848e+06
4.72864e+06
4.69933e+06
4.67015e+06
4.51918e+06
4.37971e+06
4.35566e+06
4.33201e+06
4.30866e+06
4.28569e+06
4.26309e+06
4.24078e+06
4.2188e+06
4.19717e+06
4.17585e+06
4.1548e+06
4.13405e+06
4.11359e+06
4.09342e+06
4.07352e+06
4.05388e+06
4.03447e+06
4.0153e+06
3.99636e+06
3.97765e+06
3.95917e+06
3.9409e+06
3.92286e+06
3.90503e+06
3.8874e+06
3.86997e+06
3.85274e+06
3.83571e+06
3.81886e+06
3.8022e+06
3.77889e+06
3.74984e+06
3.72133e+06
3.69351e+06
3.66617e+06
3.63908e+06
3.61417e+06
3.5995e+06
3.58501e+06
3.57066e+06
3.55647e+06
3.54242e+06
3.52851e+06
3.51475e+06
3.50114e+06
3.48767e+06
3.47436e+06
3.46119e+06
3.44817e+06
3.43529e+06
3.42254e+06
3.40993e+06
3.39747e+06
3.38512e+06
3.37301e+06
3.3608e+06
3.34835e+06
5.62189e+06
6.67892e+06
6.96627e+06
7.23821e+06
7.19832e+06
7.26142e+06
7.35936e+06
7.42235e+06
7.24791e+06
6.80811e+06
6.37286e+06
6.04858e+06
5.90468e+06
5.83835e+06
5.77472e+06
5.71368e+06
5.65503e+06
5.5987e+06
5.54444e+06
5.49218e+06
5.44172e+06
5.39298e+06
5.34585e+06
5.30016e+06
5.256e+06
5.21314e+06
5.17151e+06
5.13122e+06
5.0919e+06
5.05369e+06
5.01655e+06
4.98022e+06
4.94483e+06
4.91036e+06
4.87658e+06
4.84353e+06
4.8113e+06
4.77978e+06
4.74888e+06
4.71876e+06
4.68922e+06
4.54854e+06
4.39633e+06
4.37051e+06
4.34621e+06
4.32235e+06
4.29888e+06
4.27573e+06
4.25293e+06
4.23052e+06
4.20844e+06
4.18667e+06
4.16522e+06
4.14408e+06
4.12323e+06
4.10267e+06
4.08242e+06
4.06244e+06
4.04272e+06
4.02326e+06
4.00405e+06
3.98507e+06
3.96632e+06
3.9478e+06
3.92951e+06
3.91142e+06
3.89356e+06
3.87591e+06
3.85848e+06
3.84124e+06
3.81686e+06
3.78661e+06
3.75687e+06
3.72778e+06
3.69925e+06
3.67112e+06
3.64835e+06
3.63324e+06
3.61829e+06
3.6035e+06
3.58886e+06
3.57439e+06
3.56008e+06
3.54592e+06
3.53192e+06
3.51807e+06
3.50436e+06
3.49081e+06
3.47741e+06
3.46414e+06
3.45103e+06
3.43807e+06
3.42525e+06
3.41257e+06
3.40003e+06
3.38763e+06
3.37534e+06
3.36329e+06
3.35114e+06
3.33878e+06
6.24367e+06
6.71355e+06
7.06792e+06
7.53355e+06
7.64193e+06
7.70379e+06
7.53357e+06
7.05065e+06
6.56014e+06
6.18854e+06
6.06186e+06
5.98743e+06
5.91634e+06
5.84843e+06
5.78334e+06
5.7209e+06
5.6609e+06
5.60327e+06
5.54783e+06
5.49441e+06
5.44289e+06
5.39309e+06
5.34504e+06
5.29853e+06
5.2535e+06
5.20996e+06
5.16754e+06
5.12645e+06
5.08658e+06
5.04766e+06
5.00988e+06
4.97312e+06
4.93721e+06
4.90213e+06
4.86799e+06
4.83451e+06
4.80165e+06
4.76998e+06
4.73882e+06
4.7082e+06
4.58234e+06
4.42208e+06
4.38556e+06
4.36065e+06
4.3362e+06
4.31211e+06
4.28843e+06
4.26515e+06
4.24224e+06
4.21968e+06
4.19747e+06
4.1756e+06
4.15404e+06
4.1328e+06
4.11187e+06
4.09123e+06
4.07088e+06
4.05083e+06
4.03104e+06
4.01151e+06
3.99223e+06
3.97321e+06
3.95443e+06
3.93587e+06
3.91757e+06
3.89948e+06
3.88164e+06
3.85773e+06
3.82615e+06
3.79501e+06
3.7645e+06
3.73468e+06
3.70538e+06
3.68338e+06
3.66777e+06
3.65233e+06
3.63708e+06
3.62199e+06
3.60708e+06
3.59234e+06
3.57777e+06
3.56334e+06
3.54907e+06
3.53495e+06
3.52099e+06
3.50719e+06
3.49354e+06
3.48005e+06
3.46671e+06
3.45351e+06
3.44046e+06
3.42755e+06
3.41479e+06
3.40217e+06
3.38969e+06
3.37736e+06
3.36513e+06
3.35314e+06
3.34106e+06
3.32877e+06
6.27099e+06
6.97404e+06
7.51739e+06
7.98412e+06
7.91172e+06
7.41032e+06
6.85731e+06
6.40372e+06
6.2401e+06
6.15615e+06
6.07624e+06
6.00015e+06
5.92741e+06
5.85787e+06
5.79123e+06
5.72734e+06
5.666e+06
5.6071e+06
5.55051e+06
5.49596e+06
5.44337e+06
5.39252e+06
5.34346e+06
5.29616e+06
5.25025e+06
5.2059e+06
5.1629e+06
5.12101e+06
5.08042e+06
5.041e+06
5.00259e+06
4.96522e+06
4.92891e+06
4.89336e+06
4.85866e+06
4.82493e+06
4.79177e+06
4.75947e+06
4.72811e+06
4.62064e+06
4.45491e+06
4.40097e+06
4.37538e+06
4.35023e+06
4.32553e+06
4.30129e+06
4.27744e+06
4.25399e+06
4.23094e+06
4.20825e+06
4.18592e+06