# Time Dx Dy Dz magD
1 0 -3.451420918439308e-07 -1.81218716043124e-23 3.451420918439308e-07
