# Time dispX dispY dispZ forceX forceY forceZ
0 0 0 0 0 0 0
1 1.067746816091505e-06 -8.155072594459385e-08 9.17789007536351e-24 100000.0000006844 -0.0003791662292100971 4.883312876172352e-19
