# Time Dx Dy Dz magD
1 0 -3.4136e-07 -0.00387733 0.00387733
