# Time dispX dispY dispZ forceX forceY forceZ
0 0 0 0 0 0 0
1 1.0668e-06 -8.20762e-08 0.00415833 100000 -0.23584 -3.18921e-10
