# Time dispX dispY dispZ forceX forceY forceZ
0 0 0 0 0 0 0
1 1.06681e-06 -8.20552e-08 -0.00135438 100000 0.407477 -3.52607e-10
