# Time dispX dispY dispZ forceX forceY forceZ
0 0 0 0 0 0 0
1 1.0668e-06 -8.20601e-08 0.00355051 99999.9 0.220632 -3.37973e-10
