# Time Dx Dy Dz magD
1 0 -3.41388e-07 -0.00280426 0.00280426
