/*--------------------------------*- C++ -*----------------------------------*\
| =========                 |                                                 |
| \\      /  F ield         | foam-extend: Open Source CFD                    |
|  \\    /   O peration     | Version:     4.1                                |
|   \\  /    A nd           | Web:         http://www.foam-extend.org         |
|    \\/     M anipulation  |                                                 |
\*---------------------------------------------------------------------------*/
FoamFile
{
    version     2.0;
    format      ascii;
    class       volVectorField;
    location    "1";
    object      D;
}
// * * * * * * * * * * * * * * * * * * * * * * * * * * * * * * * * * * * * * //

dimensions      [0 1 0 0 0 0 0];

internalField   nonuniform List<vector> 
1050
(
(2.38471699348e-06 3.20038239052e-05 -0.000185708738073)
(6.25002260049e-06 3.11661662032e-05 -0.0001832292568)
(1.02511564317e-05 2.97903143766e-05 -0.000178048915738)
(1.36291989304e-05 2.78097977099e-05 -0.000170866869014)
(1.65221909395e-05 2.53925153729e-05 -0.000162198518021)
(1.88185989837e-05 2.2670958724e-05 -0.000152571306721)
(2.05348627466e-05 1.97808814012e-05 -0.000142535903822)
(2.17009153274e-05 1.68461082825e-05 -0.00013259545979)
(2.23824506693e-05 1.39721608864e-05 -0.000123188461673)
(2.266726641e-05 1.12362214565e-05 -0.000114668734015)
(2.26533832754e-05 8.70403025714e-06 -0.000107305731897)
(2.24477604955e-05 6.38914257226e-06 -0.000101283553267)
(2.21587455906e-05 4.34149908334e-06 -9.67150855132e-05)
(2.18721952675e-05 2.46982974068e-06 -9.36711819028e-05)
(2.17503014497e-05 8.44167459131e-07 -9.20712114538e-05)
(2.5448374758e-06 3.1429194463e-05 -0.000170777345096)
(6.56379930012e-06 3.05497399375e-05 -0.000168331656276)
(1.06886298866e-05 2.90601640645e-05 -0.000163294829057)
(1.41242786344e-05 2.69707469447e-05 -0.00015646542842)
(1.70155731712e-05 2.44467674902e-05 -0.000148320086526)
(1.92624795865e-05 2.16414081744e-05 -0.000139361082764)
(2.08934568736e-05 1.86977175921e-05 -0.000130101023802)
(2.19509176994e-05 1.57455112453e-05 -0.00012099918587)
(2.25124610799e-05 1.28931914563e-05 -0.000112449086358)
(2.26764725548e-05 1.02232678686e-05 -0.000104762055195)
(2.25538305934e-05 7.80119893077e-06 -9.81669060357e-05)
(2.22641933477e-05 5.64789947858e-06 -9.28111798106e-05)
(2.19263854752e-05 3.78976731508e-06 -8.87695292302e-05)
(2.16306075112e-05 2.1420032213e-06 -8.60786260635e-05)
(2.14982729866e-05 7.14617505829e-07 -8.46343540219e-05)
(2.6356334812e-06 3.08745811589e-05 -0.00015448784597)
(6.69421090225e-06 2.99563662971e-05 -0.000152097645074)
(1.08416161326e-05 2.83725494919e-05 -0.00014728263491)
(1.42476636217e-05 2.62004432928e-05 -0.000140892852145)
(1.70747942676e-05 2.36051456844e-05 -0.000133369691104)
(1.92342109395e-05 2.07593323131e-05 -0.00012517881743)
(2.07669467989e-05 1.78115828972e-05 -0.000116787206211)
(2.17275858078e-05 1.48949195206e-05 -0.000108603225171)
(2.22050444733e-05 1.21169006317e-05 -0.000100969125416)
(2.23077602041e-05 9.55613136717e-06 -9.41476246104e-05)
(2.21547035963e-05 7.268350616e-06 -8.83233017966e-05)
(2.18671779085e-05 5.25989644958e-06 -8.36069596375e-05)
(2.15563817971e-05 3.53790866025e-06 -8.00448748622e-05)
(2.12966278439e-05 2.00334511374e-06 -7.76581833249e-05)
(2.11839146677e-05 6.75003764367e-07 -7.63355119122e-05)
(2.67948626777e-06 3.02834840664e-05 -0.000136590959642)
(6.67372966e-06 2.93343656882e-05 -0.00013429529232)
(1.07552665072e-05 2.76798724829e-05 -0.000129794884406)
(1.406126806e-05 2.54550729145e-05 -0.000123950564569)
(1.67725345607e-05 2.28268241436e-05 -0.000117164399393)
(1.88142838004e-05 1.99832655926e-05 -0.000109852805381)
(2.02398313985e-05 1.70749148988e-05 -0.000102428787387)
(2.11150347679e-05 1.42331830228e-05 -9.52432594475e-05)
(2.15370664767e-05 1.15587192918e-05 -8.85828578167e-05)
(2.16190419831e-05 9.11964691386e-06 -8.2659851462e-05)
(2.14791688632e-05 6.95595780949e-06 -7.76167091547e-05)
(2.12318607072e-05 5.05967176554e-06 -7.35330481393e-05)
(2.09720478521e-05 3.42368874046e-06 -7.04368059373e-05)
(2.07612245776e-05 1.94788946877e-06 -6.83418997964e-05)
(2.06670537027e-05 6.61564360906e-07 -6.71377314223e-05)
(2.67852378446e-06 2.94757528857e-05 -0.000116956342257)
(6.51714216207e-06 2.85066401314e-05 -0.000114814465946)
(1.0451315104e-05 2.68067445862e-05 -0.000110741749121)
(1.35960033121e-05 2.4562763866e-05 -0.000105569844469)
(1.61455377373e-05 2.19432763881e-05 -9.9651979888e-05)
(1.80419438678e-05 1.91459850507e-05 -9.33422942786e-05)
(1.93495169469e-05 1.63191878115e-05 -8.69914559239e-05)
(2.01434115446e-05 1.35874462868e-05 -8.08878456814e-05)
(2.05246447827e-05 1.10400801053e-05 -7.52608384381e-05)
(2.06045133094e-05 8.73136231631e-06 -7.02740419587e-05)
(2.04931138071e-05 6.68677650798e-06 -6.60327590935e-05)
(2.02913652551e-05 4.88776777635e-06 -6.25921369139e-05)
(2.00775330985e-05 3.32265663378e-06 -5.99685521147e-05)
(1.99007926657e-05 1.89471585138e-06 -5.81731692417e-05)
(1.98177682988e-05 6.46341527862e-07 -5.7098930262e-05)
(2.62256742617e-06 2.82091210174e-05 -9.55748683736e-05)
(6.21205305994e-06 2.72374505436e-05 -9.36650844864e-05)
(9.9099159439e-06 2.55289269783e-05 -9.01513048432e-05)
(1.28299392616e-05 2.33139049614e-05 -8.57932096717e-05)
(1.51704456277e-05 2.07596793751e-05 -8.08826487987e-05)
(1.68916005812e-05 1.80651435628e-05 -7.5700295004e-05)
(1.80653229253e-05 1.53715191341e-05 -7.05275110105e-05)
(1.8772242229e-05 1.27920465389e-05 -6.558758568e-05)
(1.91118951812e-05 1.0402411909e-05 -6.1053759061e-05)
(1.91882079336e-05 8.24369721517e-06 -5.70451625214e-05)
(1.90988080913e-05 6.33016486465e-06 -5.36357650651e-05)
(1.89302559938e-05 4.63929882021e-06 -5.08619830978e-05)
(1.87462430678e-05 3.15888340928e-06 -4.87328739533e-05)
(1.85886203323e-05 1.8011687828e-06 -4.72581674725e-05)
(1.85073220929e-05 6.15958037536e-07 -4.63370465554e-05)
(2.47737308633e-06 2.60091826274e-05 -7.27401203782e-05)
(5.69197932905e-06 2.50710884812e-05 -7.11548340675e-05)
(9.02837591058e-06 2.34192650743e-05 -6.83384823819e-05)
(1.16352133352e-05 2.13167817761e-05 -6.49326604905e-05)
(1.37005982721e-05 1.89215854597e-05 -6.11562905964e-05)
(1.52019395863e-05 1.64225617335e-05 -5.72100623162e-05)
(1.62132632038e-05 1.39480799884e-05 -5.33020878925e-05)
(1.68151331481e-05 1.15962634894e-05 -4.95911746999e-05)
(1.71001086455e-05 9.42866508076e-06 -4.61979423444e-05)
(1.71604121979e-05 7.47516416909e-06 -4.32024520031e-05)
(1.70792462378e-05 5.74276412464e-06 -4.06529048923e-05)
(1.69288583362e-05 4.20916163831e-06 -3.85714677877e-05)
(1.67608938661e-05 2.86349611733e-06 -3.69624476907e-05)
(1.6611224893e-05 1.62947666185e-06 -3.58343078346e-05)
(1.65263481478e-05 5.58257477742e-07 -3.50964199863e-05)
(2.19895032252e-06 2.24690275986e-05 -4.92199641722e-05)
(4.89196509578e-06 2.16130861917e-05 -4.80568038017e-05)
(7.70673466432e-06 2.01127783898e-05 -4.6063013351e-05)
(9.88742564457e-06 1.82397985146e-05 -4.37177317796e-05)
(1.15925843159e-05 1.61330014149e-05 -4.11601585665e-05)
(1.28148649046e-05 1.39577780544e-05 -3.8512227723e-05)
(1.36238079131e-05 1.18232244376e-05 -3.59093088669e-05)
(1.40935946502e-05 9.80886984409e-06 -3.34501026366e-05)
(1.43045492783e-05 7.96191274704e-06 -3.12083676166e-05)
(1.43337285206e-05 6.30292775974e-06 -2.92313661285e-05)
(1.42485498168e-05 4.83411880188e-06 -2.75467855775e-05)
(1.41070042164e-05 3.53609230497e-06 -2.61663274816e-05)
(1.39494611325e-05 2.39882771144e-06 -2.50914483961e-05)
(1.38057733433e-05 1.36104535717e-06 -2.43291415828e-05)
(1.37177736827e-05 4.67252787607e-07 -2.38046881768e-05)
(1.64554557504e-06 1.6182026123e-05 -2.66087291034e-05)
(3.53021477775e-06 1.55403877622e-05 -2.59356526746e-05)
(5.51963044617e-06 1.44029160756e-05 -2.48296235727e-05)
(7.0530245833e-06 1.30133201532e-05 -2.35658239704e-05)
(8.23690403629e-06 1.14680588921e-05 -2.22105951815e-05)
(9.07299381543e-06 9.8871935575e-06 -2.08189064705e-05)
(9.61472904511e-06 8.34803042909e-06 -1.94605313851e-05)
(9.91835052626e-06 6.90488313973e-06 -1.81832574655e-05)
(1.00423084793e-05 5.5886113695e-06 -1.70224283664e-05)
(1.00411833759e-05 4.41136425127e-06 -1.5999771069e-05)
(9.96176069903e-06 3.37273198136e-06 -1.51276673707e-05)
(9.84416896031e-06 2.45884932449e-06 -1.44107143245e-05)
(9.71542793302e-06 1.66130466995e-06 -1.3849064624e-05)
(9.59700623655e-06 9.39724233997e-07 -1.34474930082e-05)
(9.52082538476e-06 3.23979907971e-07 -1.315595142e-05)
(7.90713042258e-07 7.55557820531e-06 -9.15724938117e-06)
(1.65404660771e-06 7.21523842945e-06 -8.8967486577e-06)
(2.55492492711e-06 6.64813617331e-06 -8.52332341768e-06)
(3.249222572e-06 5.9650124144e-06 -8.10152046208e-06)
(3.76881426429e-06 5.21765570467e-06 -7.65250373875e-06)
(4.12042871699e-06 4.46222730091e-06 -7.19465272003e-06)
(4.33235999836e-06 3.73610594138e-06 -6.75123530471e-06)
(4.43419151207e-06 3.0639974648e-06 -6.3372406413e-06)
(4.45553631668e-06 2.45899589142e-06 -5.96337362875e-06)
(4.42318526352e-06 1.92509450798e-06 -5.63581082131e-06)
(4.35957789824e-06 1.46023952918e-06 -5.35778814178e-06)
(4.28333628804e-06 1.05713585933e-06 -5.13016405114e-06)
(4.20688045139e-06 7.09282998294e-07 -4.95261066924e-06)
(4.13851278441e-06 4.01179044708e-07 -4.82611042443e-06)
(4.09653716101e-06 1.41296140893e-07 -4.73382864236e-06)
(1.43073042051e-06 2.08277265126e-05 -0.000186163954601)
(4.03273770464e-06 2.02890272336e-05 -0.000183686369742)
(6.60299152084e-06 1.93949861947e-05 -0.000178492527046)
(8.77715772997e-06 1.81129871111e-05 -0.00017128643534)
(1.06358171533e-05 1.65508945696e-05 -0.000162598018746)
(1.21073311701e-05 1.47950612693e-05 -0.000152947183861)
(1.32063330732e-05 1.29334513504e-05 -0.000142890535981)
(1.39544047141e-05 1.1045636375e-05 -0.000132932469476)
(1.43969219586e-05 9.19797692429e-06 -0.00012351478975)
(1.45927911789e-05 7.43652605166e-06 -0.000114992768507)
(1.46053681991e-05 5.79923997862e-06 -0.000107638358261)
(1.45014429461e-05 4.2897979301e-06 -0.000101632208415)
(1.43448309686e-05 2.93609912487e-06 -9.70856824439e-05)
(1.41852035776e-05 1.6853209345e-06 -9.40677395827e-05)
(1.4118685168e-05 5.71860786701e-07 -9.24666704596e-05)
(1.54197867706e-06 2.04668523638e-05 -0.000171233887914)
(4.26692550302e-06 1.98893077469e-05 -0.00016878188872)
(6.93351349329e-06 1.8919313941e-05 -0.000163732055021)
(9.15846950801e-06 1.75592303218e-05 -0.000156876538832)
(1.10251855583e-05 1.59199020153e-05 -0.000148708532248)
(1.24699616217e-05 1.41013743131e-05 -0.000139723320215)
(1.35154535842e-05 1.21968028145e-05 -0.000130439572081)
(1.4191739964e-05 1.02898331254e-05 -0.000121317873851)
(1.45521728092e-05 8.44866940032e-06 -0.00011275461408)
(1.4662302921e-05 6.72334006545e-06 -0.000105062033699)
(1.45935984402e-05 5.15269322735e-06 -9.84699705282e-05)
(1.44211059602e-05 3.7478455901e-06 -9.31224962036e-05)
(1.42174000397e-05 2.5238994949e-06 -8.90927353914e-05)
(1.40375858724e-05 1.43491969043e-06 -8.64169904293e-05)
(1.39563048656e-05 4.70730003403e-07 -8.49681463984e-05)
(1.60415548876e-06 2.01020847728e-05 -0.00015492095931)
(4.37325138572e-06 1.9493020303e-05 -0.000152520680148)
(7.0670164034e-06 1.8460363561e-05 -0.000147693635941)
(9.28297435074e-06 1.70418147098e-05 -0.000141277107676)
(1.11161347272e-05 1.53506574166e-05 -0.000133730929554)
(1.25096261039e-05 1.34996158891e-05 -0.000125513487583)
(1.3493987136e-05 1.15856790812e-05 -0.000117097681505)
(1.41068467212e-05 9.69492770127e-06 -0.000108892796444)
(1.44085611221e-05 7.89561493403e-06 -0.000101243301775)
(1.44709353404e-05 6.23639195041e-06 -9.44120149481e-05)
(1.43710552476e-05 4.75144772369e-06 -8.85839317168e-05)
(1.41861840678e-05 3.44416270395e-06 -8.3866155025e-05)
(1.39865544309e-05 2.31783532677e-06 -8.03053541061e-05)
(1.38191961011e-05 1.31728590083e-06 -7.79218444821e-05)
(1.37445384873e-05 4.32776180167e-07 -7.65912707652e-05)
(1.63120991721e-06 1.96964720992e-05 -0.000136960156569)
(4.36897339075e-06 1.90638529543e-05 -0.000134650661173)
(7.0262997077e-06 1.79842675587e-05 -0.000130140020089)
(9.18163260773e-06 1.65291423282e-05 -0.000124269312964)
(1.0943577167e-05 1.48134721888e-05 -0.000117460749651)
(1.22634899316e-05 1.29602601974e-05 -0.000110122940146)
(1.31794303754e-05 1.10678479077e-05 -0.000102674455639)
(1.37357331887e-05 9.22175381637e-06 -9.54667305361e-05)
(1.39976448692e-05 7.48649915969e-06 -8.87880525088e-05)
(1.40399360068e-05 5.90508083213e-06 -8.2850527485e-05)
(1.39398536476e-05 4.50257602906e-06 -7.77969391236e-05)
(1.37715647739e-05 3.27377797166e-06 -7.37042365676e-05)
(1.35966035709e-05 2.2123301533e-06 -7.06019029087e-05)
(1.34548385915e-05 1.26183915903e-06 -6.85037272296e-05)
(1.3389194571e-05 4.15391606104e-07 -6.72895260142e-05)
(1.62651469292e-06 1.91375859243e-05 -0.0001172163928)
(4.26535577933e-06 1.84907001195e-05 -0.00011505744656)
(6.82747793201e-06 1.73819292651e-05 -0.000110977351856)
(8.87694219984e-06 1.59147129642e-05 -0.000105781189601)
(1.053362838e-05 1.42046245074e-05 -9.98433051917e-05)
(1.17589464073e-05 1.23812020218e-05 -9.35095768958e-05)
(1.25976714639e-05 1.05412366904e-05 -8.71356786132e-05)
(1.30996231103e-05 8.76613948658e-06 -8.10101569549e-05)
(1.33321334968e-05 7.11362358559e-06 -7.53636642909e-05)
(1.33687700939e-05 5.61840390893e-06 -7.03595853202e-05)
(1.32820040655e-05 4.29669122648e-06 -6.61037923238e-05)
(1.31380785389e-05 3.13640576183e-06 -6.26493982413e-05)
(1.29886486099e-05 2.12776201434e-06 -6.00152771259e-05)
(1.28658469842e-05 1.2158984118e-06 -5.82122055015e-05)
(1.28062375813e-05 4.00113037077e-07 -5.71265797888e-05)
(1.58566541895e-06 1.82678728259e-05 -9.56641727089e-05)
(4.05705835591e-06 1.76194073591e-05 -9.37355924691e-05)
(6.46152642848e-06 1.65065573624e-05 -9.02188639728e-05)
(8.35973829526e-06 1.50606731993e-05 -8.58413609184e-05)
(9.8767893728e-06 1.33953688111e-05 -8.09157101137e-05)
(1.09853139831e-05 1.16412857869e-05 -7.57141380035e-05)
(1.17346908852e-05 9.89036147022e-06 -7.05221733176e-05)
(1.21779428118e-05 8.21677833062e-06 -6.55629895349e-05)
(1.23811275565e-05 6.66962776204e-06 -6.10108020016e-05)
(1.24129693106e-05 5.27536338947e-06 -5.69846595791e-05)
(1.23380096567e-05 4.04303758129e-06 -5.35593024489e-05)
(1.22134934219e-05 2.95781604045e-06 -5.07698870472e-05)
(1.20818560726e-05 2.0093121619e-06 -4.86282465992e-05)
(1.19703012909e-05 1.14793679841e-06 -4.7143919945e-05)
(1.1911961131e-05 3.76966570709e-07 -4.62109026268e-05)
(1.48836296632e-06 1.67736153e-05 -7.25954527623e-05)
(3.70219493037e-06 1.61486991879e-05 -7.09915405678e-05)
(5.8637652413e-06 1.50760005979e-05 -6.81780393454e-05)
(7.55010562423e-06 1.37082869729e-05 -6.47603268201e-05)
(8.88193665577e-06 1.21515795736e-05 -6.09762517232e-05)
(9.84291357362e-06 1.05301908125e-05 -5.70182764841e-05)
(1.04833828903e-05 8.92729914072e-06 -5.30976204964e-05)
(1.08560903534e-05 7.40713325019e-06 -4.93727553857e-05)
(1.10222434797e-05 6.00956614733e-06 -4.5965035143e-05)
(1.10427620861e-05 4.75379273233e-06 -4.29545977629e-05)
(1.09726690546e-05 3.64410579287e-06 -4.03905664162e-05)
(1.08598140398e-05 2.66565125088e-06 -3.82944075012e-05)
(1.07386717627e-05 1.80897207038e-06 -3.66731602387e-05)
(1.06321610689e-05 1.0313105916e-06 -3.55351460199e-05)
(1.05723870063e-05 3.3750126025e-07 -3.47858322807e-05)
(1.30755311793e-06 1.43756877548e-05 -4.87339383251e-05)
(3.15740935526e-06 1.38074897693e-05 -4.75579830097e-05)
(4.9670583327e-06 1.28388553434e-05 -4.55758469413e-05)
(6.36441280135e-06 1.16280479701e-05 -4.32314231138e-05)
(7.4523751652e-06 1.02672425039e-05 -4.06785634568e-05)
(8.22475278429e-06 8.86531378308e-06 -3.80316531195e-05)
(8.72843318456e-06 7.49242501464e-06 -3.5427756008e-05)
(9.01184334604e-06 6.20037689368e-06 -3.29649663277e-05)
(9.1278933198e-06 5.01950132246e-06 -3.07174639895e-05)
(9.12733839132e-06 3.96281413956e-06 -2.87326918391e-05)
(9.05460842792e-06 3.03136127711e-06 -2.70392441187e-05)
(8.94797525515e-06 2.21210294935e-06 -2.56486435209e-05)
(8.83426754688e-06 1.49634842365e-06 -2.45646659645e-05)
(8.73204392051e-06 8.50299310384e-07 -2.37945181596e-05)
(8.67160603278e-06 2.76808035718e-07 -2.32603941443e-05)
(9.61131218577e-07 1.02372116259e-05 -2.56976808339e-05)
(2.25501305138e-06 9.8125976336e-06 -2.50222244987e-05)
(3.52003649192e-06 9.08419150465e-06 -2.39383827192e-05)
(4.48991084332e-06 8.19382864935e-06 -2.26913537287e-05)
(5.2341438674e-06 7.20472079338e-06 -2.13562562091e-05)
(5.75307992143e-06 6.19592300597e-06 -1.99815746332e-05)
(6.08245627465e-06 5.21649631077e-06 -1.86372402429e-05)
(6.2588603585e-06 4.30143325214e-06 -1.73701536879e-05)
(6.32056114581e-06 3.47021828046e-06 -1.62157497139e-05)
(6.30328004953e-06 2.73027561208e-06 -1.51959615877e-05)
(6.23759070591e-06 2.08090111182e-06 -1.43239578562e-05)
(6.14973535289e-06 1.51272121679e-06 -1.36045454485e-05)
(6.05746269236e-06 1.0185529435e-06 -1.30395900002e-05)
(5.97353842012e-06 5.76999878498e-07 -1.26344411941e-05)
(5.92248263876e-06 1.8615152308e-07 -1.23367696848e-05)
(3.84736211122e-07 4.21023574379e-06 -7.74107737659e-06)
(9.39474776707e-07 4.00612120782e-06 -7.50374322034e-06)
(1.44582461267e-06 3.68189704398e-06 -7.1674973232e-06)
(1.8315336225e-06 3.29102965607e-06 -6.78636162761e-06)
(2.11590806749e-06 2.86448851785e-06 -6.381168738e-06)
(2.30260684818e-06 2.43600609434e-06 -5.9656165605e-06)
(2.40885819408e-06 2.02677845433e-06 -5.56118808525e-06)
(2.45233267581e-06 1.65100537225e-06 -5.18149788641e-06)
(2.45075852693e-06 1.31583890775e-06 -4.83673412605e-06)
(2.42009084171e-06 1.02308453968e-06 -4.53297390849e-06)
(2.37353667847e-06 7.70997640696e-07 -4.27375407587e-06)
(2.32192384787e-06 5.54858435422e-07 -4.06018012491e-06)
(2.27242150481e-06 3.69633968332e-07 -3.89262668031e-06)
(2.22861639904e-06 2.09173178884e-07 -3.77302183163e-06)
(2.20440952261e-06 6.37620847315e-08 -3.68209901213e-06)
(6.69699969883e-07 9.71701821736e-06 -0.00018643045851)
(1.93903114624e-06 9.45929686377e-06 -0.000183968946847)
(3.17168020484e-06 9.03129968049e-06 -0.000178759976049)
(4.21180397024e-06 8.41908237918e-06 -0.000171542777594)
(5.09813272583e-06 7.67564331764e-06 -0.000162843492436)
(5.79514349732e-06 6.84343600407e-06 -0.000153180462015)
(6.31167530875e-06 5.96550806747e-06 -0.000143112766454)
(6.65916527965e-06 5.08048043659e-06 -0.000133145343851)
(6.8609944123e-06 4.22001425542e-06 -0.000123721650353)
(6.94697835095e-06 3.40497078517e-06 -0.000115197728633)
(6.94844492958e-06 2.65212311949e-06 -0.0001078465127)
(6.89774275693e-06 1.96080426285e-06 -0.000101847872375)
(6.82460513684e-06 1.34214702893e-06 -9.73106941992e-05)
(6.75163492728e-06 7.71744886508e-07 -9.4305454679e-05)
(6.72073542219e-06 2.60624797164e-07 -9.27052051522e-05)
(7.25131812171e-07 9.58824073613e-06 -0.000171504399065)
(2.06159341382e-06 9.30959012302e-06 -0.000169064245612)
(3.34582953996e-06 8.84414885705e-06 -0.000163999527971)
(4.41467108211e-06 8.19233281949e-06 -0.000157132171231)
(5.30788764207e-06 7.40953994879e-06 -0.000148952403039)
(5.99413431099e-06 6.54514280669e-06 -0.000139954340674)
(6.48638930276e-06 5.6446795777e-06 -0.0001306592488)
(6.80054023855e-06 4.74863716158e-06 -0.000121528378194)
(6.96411197927e-06 3.88919502697e-06 -0.00011295959026)
(7.01018174722e-06 3.08879421065e-06 -0.000105265576915)
(6.97384116392e-06 2.36423316414e-06 -9.8676351708e-05)
(6.8910406037e-06 1.71841660669e-06 -9.33346700478e-05)
(6.79544223087e-06 1.15695371397e-06 -8.93110795136e-05)
(6.7121639004e-06 6.58562317019e-07 -8.66437872915e-05)
(6.67394829146e-06 2.15141274856e-07 -8.5193473118e-05)
(7.55678084124e-07 9.454620301e-06 -0.000155177094001)
(2.11960476576e-06 9.15946745682e-06 -0.000152787830972)
(3.42087398562e-06 8.66316365437e-06 -0.000147945814228)
(4.4886649542e-06 7.98182254248e-06 -0.000141517148707)
(5.36855477381e-06 7.17248951092e-06 -0.000133958985901)
(6.03255429876e-06 6.29075511446e-06 -0.000125728389742)
(6.49755172706e-06 5.38388701716e-06 -0.000117300803988)
(6.78313059828e-06 4.4933791425e-06 -0.00010908602075)
(6.92015749786e-06 3.65118065515e-06 -0.000101429700086)
(6.94453580549e-06 2.87893303328e-06 -9.45947420824e-05)
(6.89384128158e-06 2.19121555992e-06 -8.87660773483e-05)
(6.80495249312e-06 1.58754748705e-06 -8.4049423926e-05)
(6.71053243339e-06 1.0683013352e-06 -8.04897618657e-05)
(6.63225474282e-06 6.07987401907e-07 -7.81094716917e-05)
(6.5965336438e-06 1.98819167666e-07 -7.67753783238e-05)
(7.6792027009e-07 9.29896995917e-06 -0.000137182611933)
(2.12045092262e-06 8.99168972877e-06 -0.000134883093891)
(3.4062564755e-06 8.47224297769e-06 -0.000130357876902)
(4.44650378239e-06 7.77242875748e-06 -0.000124475066515)
(5.29397813873e-06 6.95008164755e-06 -0.000117654724092)
(5.92457335645e-06 6.06580015582e-06 -0.000110303712947)
(6.35877817779e-06 5.16729171861e-06 -0.00010284300055)
(6.61925719998e-06 4.29562615196e-06 -9.56243084369e-05)
(6.73898445783e-06 3.48082633914e-06 -8.89368220335e-05)
(6.7550001025e-06 2.7418901441e-06 -8.29925920175e-05)
(6.70475497116e-06 2.08924772644e-06 -7.79343298673e-05)
(6.62365159919e-06 1.51870703723e-06 -7.38381462942e-05)
(6.54041356506e-06 1.02635780145e-06 -7.07324567303e-05)
(6.47359857368e-06 5.86311247584e-07 -6.86337888897e-05)
(6.44181227166e-06 1.91927625722e-07 -6.74143823375e-05)
(7.6400090646e-07 9.06668898194e-06 -0.000117384743777)
(2.07013506417e-06 8.75228523107e-06 -0.000115234381689)
(3.31044429619e-06 8.21849254139e-06 -0.000111141001601)
(4.29987066384e-06 7.51257521277e-06 -0.000105933564723)
(5.09747094564e-06 6.69222296777e-06 -9.99850100304e-05)
(5.68387495396e-06 5.8211748805e-06 -9.36389519498e-05)
(6.08268873692e-06 4.94610289847e-06 -8.72532484907e-05)
(6.31895324209e-06 4.10594336295e-06 -8.11165223738e-05)
(6.42627827099e-06 3.32740824141e-06 -7.54601334325e-05)
(6.44077360567e-06 2.62570520298e-06 -7.04473913572e-05)
(6.39739758049e-06 2.00734819803e-06 -6.61843006261e-05)
(6.32778338904e-06 1.46525542226e-06 -6.27235064843e-05)
(6.25615476775e-06 9.94168150231e-07 -6.00833719507e-05)
(6.19762903475e-06 5.69040399082e-07 -5.82774790388e-05)
(6.16843397214e-06 1.85963390753e-07 -5.71855959674e-05)
(7.42442815962e-07 8.68033633359e-06 -9.57500084214e-05)
(1.96707125866e-06 8.36515037978e-06 -9.38286750126e-05)
(3.13048627064e-06 7.82927006996e-06 -9.03010933208e-05)
(4.04612305115e-06 7.13368441046e-06 -8.59144668871e-05)
(4.77632981845e-06 6.33450727285e-06 -8.09805760037e-05)
(5.30708612059e-06 5.49595400953e-06 -7.57689545521e-05)
(5.66401610129e-06 4.66206570863e-06 -7.05669895891e-05)
(5.87341618844e-06 3.86818474309e-06 -6.55977719097e-05)
(5.96790705474e-06 3.13692811712e-06 -6.10360741199e-05)
(5.98096101248e-06 2.4798062643e-06 -5.70009446047e-05)
(5.94357988352e-06 1.90025540624e-06 -5.35674050558e-05)
(5.88313481734e-06 1.39025106626e-06 -5.07705094659e-05)
(5.81961412247e-06 9.44474262949e-07 -4.86218208276e-05)
(5.76591191885e-06 5.40434716292e-07 -4.71337784628e-05)
(5.73727008642e-06 1.75990076772e-07 -4.61940062922e-05)
(6.93981640738e-07 7.98409781938e-06 -7.2567333894e-05)
(1.79140686691e-06 7.68059437638e-06 -7.09695908828e-05)
(2.835686502e-06 7.16431442532e-06 -6.81487645743e-05)
(3.64747667455e-06 6.50695924747e-06 -6.47254265592e-05)
(4.28752205857e-06 5.76021499293e-06 -6.09368243814e-05)
(4.74712451401e-06 4.98513717644e-06 -5.69724902823e-05)
(5.0520763056e-06 4.22129760705e-06 -5.30450684446e-05)
(5.22826341562e-06 3.4991880885e-06 -4.93128347129e-05)
(5.30563373574e-06 2.83711786545e-06 -4.5897579441e-05)
(5.31366081212e-06 2.24340842169e-06 -4.28795126678e-05)
(5.2786723735e-06 1.7195377915e-06 -4.03081391102e-05)
(5.2235708802e-06 1.25778759878e-06 -3.82050295618e-05)
(5.16466013209e-06 8.53455002943e-07 -3.65770784812e-05)
(5.11283425785e-06 4.87249437655e-07 -3.54354069918e-05)
(5.08353254618e-06 1.5785139863e-07 -3.46793913141e-05)
(6.05993885953e-07 6.83796622447e-06 -4.8553990446e-05)
(1.52211064737e-06 6.56233158224e-06 -4.73849188421e-05)
(2.39328135637e-06 6.09697188357e-06 -4.54006672461e-05)
(3.06306558623e-06 5.51633765891e-06 -4.30565180155e-05)
(3.58364126941e-06 4.86476808947e-06 -4.05051815856e-05)
(3.95133247789e-06 4.19568307917e-06 -3.78581550156e-05)
(4.18988376995e-06 3.5422220947e-06 -3.52533094133e-05)
(4.32287654887e-06 2.92888301579e-06 -3.2788420252e-05)
(4.37600484472e-06 2.36954740581e-06 -3.05379337434e-05)
(4.37369402901e-06 1.86983857895e-06 -2.85493919756e-05)
(4.33713083889e-06 1.42991450122e-06 -2.68517574719e-05)
(4.28464237692e-06 1.04315960798e-06 -2.54567968932e-05)
(4.2289341403e-06 7.05327687392e-07 -2.43681212153e-05)
(4.17878519062e-06 4.01252483387e-07 -2.3595581603e-05)
(4.14935667143e-06 1.29018805614e-07 -2.30555512768e-05)
(4.41563714192e-07 4.85334366051e-06 -2.53023995712e-05)
(1.08158491907e-06 4.64791961752e-06 -2.46370181863e-05)
(1.68748404614e-06 4.29926987216e-06 -2.3558841467e-05)
(2.14960327423e-06 3.87415322935e-06 -2.23209232494e-05)
(2.50348827563e-06 3.40240187716e-06 -2.09963940382e-05)
(2.74883495119e-06 2.92281103436e-06 -1.96309997971e-05)
(2.90354301329e-06 2.45830532165e-06 -1.82947515077e-05)
(2.98529941206e-06 2.02534549514e-06 -1.70340829156e-05)
(3.01255079484e-06 1.63279847091e-06 -1.58844884473e-05)
(3.00239364219e-06 1.28385359051e-06 -1.48679593447e-05)
(2.96934216854e-06 9.78005382866e-07 -1.39979318571e-05)
(2.92594964388e-06 7.10579904253e-07 -1.32794669877e-05)
(2.88059481638e-06 4.78108886252e-07 -1.27142104363e-05)
(2.83920943097e-06 2.71083920672e-07 -1.23098252982e-05)
(2.81461888034e-06 8.61668344416e-08 -1.20084742752e-05)
(1.63961511715e-07 1.88563433424e-06 -7.21694745782e-06)
(4.28084519215e-07 1.79167117295e-06 -6.99606918692e-06)
(6.57884206049e-07 1.64463747328e-06 -6.67129085676e-06)
(8.3166123803e-07 1.46779781296e-06 -6.3072349282e-06)
(9.59279520732e-07 1.27499317303e-06 -5.92058334479e-06)
(1.04219385849e-06 1.08213696332e-06 -5.5231561427e-06)
(1.08860672017e-06 8.98573596636e-07 -5.13578301154e-06)
(1.10669017271e-06 7.30633172873e-07 -4.77148935714e-06)
(1.1046085308e-06 5.8134505853e-07 -4.44024277288e-06)
(1.08964906264e-06 4.51342768755e-07 -4.14801524766e-06)
(1.06776423766e-06 3.39718899398e-07 -3.89836399736e-06)
(1.04385569739e-06 2.44203421123e-07 -3.69252337182e-06)
(1.0210652454e-06 1.6246538618e-07 -3.53050691317e-06)
(1.00081177438e-06 9.20075022265e-08 -3.41602183003e-06)
(9.90225902077e-07 2.75905859041e-08 -3.32473684479e-06)
(-3.10037842296e-08 -1.36115864549e-06 -0.000186666424213)
(-9.12862394304e-08 -1.34477888028e-06 -0.000184206825031)
(-1.50638661705e-07 -1.31466048588e-06 -0.000178993574052)
(-2.07752317149e-07 -1.27017636249e-06 -0.000171771002254)
(-2.62397084531e-07 -1.21151218955e-06 -0.000163066603279)
(-3.13941846031e-07 -1.13905194045e-06 -0.000153397411505)
(-3.61794555429e-07 -1.05325810043e-06 -0.000143323701336)
(-4.05244547883e-07 -9.54892822292e-07 -0.000133350538293)
(-4.43566531477e-07 -8.44933746018e-07 -0.000123922028505)
(-4.75898254235e-07 -7.24990161601e-07 -0.000115394477)
(-5.0141627663e-07 -5.96947378965e-07 -0.000108041372219)
(-5.19438989724e-07 -4.63926753688e-07 -0.000102042421544)
(-5.30014821892e-07 -3.29060587121e-07 -9.75058818104e-05)
(-5.33321024244e-07 -1.95512383225e-07 -9.45038036946e-05)
(-5.37978762431e-07 -6.6285675168e-08 -9.29018413409e-05)
(-3.19677946355e-08 -1.24322401002e-06 -0.000171741016846)
(-9.4212897264e-08 -1.22534523628e-06 -0.000169301070861)
(-1.54377586572e-07 -1.19410646176e-06 -0.000164232041054)
(-2.11554629183e-07 -1.14840458505e-06 -0.00015735884525)
(-2.65175751935e-07 -1.08840690458e-06 -0.00014917346077)
(-3.14412764259e-07 -1.01452042948e-06 -0.000140168844058)
(-3.58312801418e-07 -9.27389505054e-07 -0.000130867538143)
(-3.95749768351e-07 -8.28208932364e-07 -0.000121730983087)
(-4.25554393019e-07 -7.1880929837e-07 -0.000113157648345)
(-4.46609713791e-07 -6.02114618875e-07 -0.000105460398922)
(-4.58393129522e-07 -4.81841106058e-07 -9.88695179063e-05)
(-4.61354562814e-07 -3.63007531023e-07 -9.35273141771e-05)
(-4.57930995247e-07 -2.49419775455e-07 -8.95037952897e-05)
(-4.50402088236e-07 -1.44764764975e-07 -8.68381297468e-05)
(-4.49022434845e-07 -4.69232683349e-08 -8.53860669669e-05)
(-3.25232986657e-08 -1.11789026092e-06 -0.000155407526865)
(-9.56515291107e-08 -1.09857458894e-06 -0.000153017876814)
(-1.55599041045e-07 -1.06628164391e-06 -0.000148171506938)
(-2.11707013885e-07 -1.01952079768e-06 -0.000141736762915)
(-2.63030362152e-07 -9.5866172484e-07 -0.000134172806962)
(-3.08544695321e-07 -8.84337034937e-07 -0.000125935475578)
(-3.47001191182e-07 -7.97660251953e-07 -0.000117501503646)
(-3.77101644573e-07 -7.00572041986e-07 -0.000109280830722)
(-3.97737236646e-07 -5.95950761589e-07 -0.000101619641123)
(-4.08317608366e-07 -4.87858910167e-07 -9.47808909189e-05)
(-4.09411521691e-07 -3.80954085953e-07 -8.89496805992e-05)
(-4.02878972486e-07 -2.80210458477e-07 -8.42312164698e-05)
(-3.92503958776e-07 -1.88574366815e-07 -8.06702633937e-05)
(-3.80870166211e-07 -1.07756249528e-07 -7.82899280817e-05)
(-3.77314861199e-07 -3.47211058937e-08 -7.69538611234e-05)
(-3.23349057925e-08 -9.84758132383e-07 -0.000137398168328)
(-9.47924296745e-08 -9.64297610897e-07 -0.000135097648795)
(-1.53008292643e-07 -9.31486336705e-07 -0.000130568271775)
(-2.06525637709e-07 -8.84494541493e-07 -0.000124679328122)
(-2.54013695e-07 -8.24058109534e-07 -0.000117853204513)
(-2.94322929389e-07 -7.51192830623e-07 -0.000110495394598)
(-3.26063379394e-07 -6.67636362545e-07 -0.000103028114148)
(-3.48060985921e-07 -5.7610358486e-07 -9.58031753834e-05)
(-3.5966619949e-07 -4.80272790828e-07 -8.91102012122e-05)
(-3.61154037161e-07 -3.84707775203e-07 -8.31612652018e-05)
(-3.54204538124e-07 -2.93936890142e-07 -7.80992398676e-05)
(-3.41655488836e-07 -2.11978513427e-07 -7.39998675565e-05)
(-3.27640778005e-07 -1.40334385688e-07 -7.08915991827e-05)
(-3.14635164833e-07 -7.92879282696e-08 -6.87916303868e-05)
(-3.09913023181e-07 -2.5508991967e-08 -6.75700332626e-05)
(-3.11575979708e-08 -8.43929213417e-07 -0.000117576002062)
(-9.10258857347e-08 -8.22877664041e-07 -0.000115424058994)