/*--------------------------------*- C++ -*----------------------------------*\
| =========                 |                                                 |
| \\      /  F ield         | foam-extend: Open Source CFD                    |
|  \\    /   O peration     | Version:     4.1                                |
|   \\  /    A nd           | Web:         http://www.foam-extend.org         |
|    \\/     M anipulation  |                                                 |
\*---------------------------------------------------------------------------*/
FoamFile
{
    version     2.0;
    format      ascii;
    class       volVectorField;
    location    "1";
    object      D_0;
}
// * * * * * * * * * * * * * * * * * * * * * * * * * * * * * * * * * * * * * //

dimensions      [0 1 0 0 0 0 0];

internalField   uniform (0 0 0);

boundaryField
{
    outside
    {
        nonOrthogonalCorrections true;
        type            fixedDisplacement;
        value           uniform (0 0 0);
    }
    symmx
    {
        forceZeroShearGrad false;
        type            fixedDisplacementZeroShear;
        refValue        uniform (6.93840540211e-310 6.93840540211e-310 4.66422172748e-310);
        refGradient     uniform (0 0 0);
        valueFraction   uniform (1 -0 -0 0 0 0);
        value           uniform (0 0 0);
        nonOrthogonalCorrections true;
        secondOrder     false;
        limitCoeff      1;
    }
    symmy
    {
        forceZeroShearGrad false;
        type            fixedDisplacementZeroShear;
        refValue        uniform (4.66422174051e-310 4.66422172739e-310 0);
        refGradient     uniform (0 0 0);
        valueFraction   uniform (0 -0 0 1 -0 0);
        value           uniform (0 0 0);
        nonOrthogonalCorrections true;
        secondOrder     false;
        limitCoeff      1;
    }
    inside
    {
        type            solidTraction;
        nonOrthogonalCorrections true;
        traction        uniform (0 0 0);
        pressure        uniform 0;
        secondOrder     false;
        setEffectiveTraction false;
        relaxationFactor 1;
        value           uniform (0 0 0);
        gradient        uniform (0 0 0);
    }
    top
    {
        type            solidTraction;
        nonOrthogonalCorrections true;
        traction        uniform (0 0 0);
        pressure        uniform 1000000;
        secondOrder     false;
        setEffectiveTraction false;
        relaxationFactor 1;
        value           nonuniform List<vector> 
150
(
(0 0 -1.59183673469e-07)
(0 0 -1.59183673469e-07)
(0 0 -1.59183673469e-07)
(0 0 -1.59183673469e-07)
(0 0 -1.59183673469e-07)
(0 0 -1.59183673469e-07)
(0 0 -1.59183673469e-07)
(0 0 -1.59183673469e-07)
(0 0 -1.59183673469e-07)
(0 0 -1.59183673469e-07)
(0 0 -1.59183673469e-07)
(0 0 -1.59183673469e-07)
(0 0 -1.59183673469e-07)
(0 0 -1.59183673469e-07)
(0 0 -1.59183673469e-07)
(0 0 -1.59183673469e-07)
(0 0 -1.59183673469e-07)
(0 0 -1.59183673469e-07)
(0 0 -1.59183673469e-07)
(0 0 -1.59183673469e-07)
(0 0 -1.59183673469e-07)
(0 0 -1.59183673469e-07)
(0 0 -1.59183673469e-07)
(0 0 -1.59183673469e-07)
(0 0 -1.59183673469e-07)
(0 0 -1.59183673469e-07)
(0 0 -1.59183673469e-07)
(0 0 -1.59183673469e-07)
(0 0 -1.59183673469e-07)
(0 0 -1.59183673469e-07)
(0 0 -1.59183673469e-07)
(0 0 -1.59183673469e-07)
(0 0 -1.59183673469e-07)
(0 0 -1.59183673469e-07)
(0 0 -1.59183673469e-07)
(0 0 -1.59183673469e-07)
(0 0 -1.59183673469e-07)
(0 0 -1.59183673469e-07)
(0 0 -1.59183673469e-07)
(0 0 -1.59183673469e-07)
(0 0 -1.59183673469e-07)
(0 0 -1.59183673469e-07)
(0 0 -1.59183673469e-07)
(0 0 -1.59183673469e-07)
(0 0 -1.59183673469e-07)
(0 0 -1.59183673469e-07)
(0 0 -1.59183673469e-07)
(0 0 -1.59183673469e-07)
(0 0 -1.59183673469e-07)
(0 0 -1.59183673469e-07)
(0 0 -1.59183673469e-07)
(0 0 -1.59183673469e-07)
(0 0 -1.59183673469e-07)
(0 0 -1.59183673469e-07)
(0 0 -1.59183673469e-07)
(0 0 -1.59183673469e-07)
(0 0 -1.59183673469e-07)
(0 0 -1.59183673469e-07)
(0 0 -1.59183673469e-07)
(0 0 -1.59183673469e-07)
(0 0 -1.59183673469e-07)
(0 0 -1.59183673469e-07)
(0 0 -1.59183673469e-07)
(0 0 -1.59183673469e-07)
(0 0 -1.59183673469e-07)
(0 0 -1.59183673469e-07)
(0 0 -1.59183673469e-07)
(0 0 -1.59183673469e-07)
(0 0 -1.59183673469e-07)
(0 0 -1.59183673469e-07)
(0 0 -1.59183673469e-07)
(0 0 -1.59183673469e-07)
(0 0 -1.59183673469e-07)
(0 0 -1.59183673469e-07)
(0 0 -1.59183673469e-07)
(0 0 -1.59183673469e-07)
(0 0 -1.59183673469e-07)
(0 0 -1.59183673469e-07)
(0 0 -1.59183673469e-07)
(0 0 -1.59183673469e-07)
(0 0 -1.59183673469e-07)
(0 0 -1.59183673469e-07)
(0 0 -1.59183673469e-07)
(0 0 -1.59183673469e-07)
(0 0 -1.59183673469e-07)
(0 0 -1.59183673469e-07)
(0 0 -1.59183673469e-07)
(0 0 -1.59183673469e-07)
(0 0 -1.59183673469e-07)
(0 0 -1.59183673469e-07)
(0 0 -1.59183673469e-07)
(0 0 -1.59183673469e-07)
(0 0 -1.59183673469e-07)
(0 0 -1.59183673469e-07)
(0 0 -1.59183673469e-07)
(0 0 -1.59183673469e-07)
(0 0 -1.59183673469e-07)
(0 0 -1.59183673469e-07)
(0 0 -1.59183673469e-07)
(0 0 -1.59183673469e-07)
(0 0 -1.59183673469e-07)
(0 0 -1.59183673469e-07)
(0 0 -1.59183673469e-07)
(0 0 -1.59183673469e-07)
(0 0 -1.59183673469e-07)
(0 0 -1.59183673469e-07)
(0 0 -1.59183673469e-07)
(0 0 -1.59183673469e-07)
(0 0 -1.59183673469e-07)
(0 0 -1.59183673469e-07)
(0 0 -1.59183673469e-07)
(0 0 -1.59183673469e-07)
(0 0 -1.59183673469e-07)
(0 0 -1.59183673469e-07)
(0 0 -1.59183673469e-07)
(0 0 -1.59183673469e-07)
(0 0 -1.59183673469e-07)
(0 0 -1.59183673469e-07)
(0 0 -1.59183673469e-07)
(0 0 -1.59183673469e-07)
(0 0 -1.59183673469e-07)
(0 0 -1.59183673469e-07)
(0 0 -1.59183673469e-07)
(0 0 -1.59183673469e-07)
(0 0 -1.59183673469e-07)
(0 0 -1.59183673469e-07)
(0 0 -1.59183673469e-07)
(0 0 -1.59183673469e-07)
(0 0 -1.59183673469e-07)
(0 0 -1.59183673469e-07)
(0 0 -1.59183673469e-07)
(0 0 -1.59183673469e-07)
(0 0 -1.59183673469e-07)
(0 0 -1.59183673469e-07)
(0 0 -1.59183673469e-07)
(0 0 -1.59183673469e-07)
(0 0 -1.59183673469e-07)
(0 0 -1.59183673469e-07)
(0 0 -1.59183673469e-07)
(0 0 -1.59183673469e-07)
(0 0 -1.59183673469e-07)
(0 0 -1.59183673469e-07)
(0 0 -1.59183673469e-07)
(0 0 -1.59183673469e-07)
(0 0 -1.59183673469e-07)
(0 0 -1.59183673469e-07)
(0 0 -1.59183673469e-07)
(0 0 -1.59183673469e-07)
(0 0 -1.59183673469e-07)
(0 0 -1.59183673469e-07)
)
;
        gradient        uniform (0 0 0);
    }
    bottom
    {
        type            solidTraction;
        nonOrthogonalCorrections true;
        traction        uniform (0 0 0);
        pressure        uniform 0;
        secondOrder     false;
        setEffectiveTraction false;
        relaxationFactor 1;
        value           uniform (0 0 0);
        gradient        uniform (0 0 0);
    }
}


// ************************************************************************* //
