/*--------------------------------*- C++ -*----------------------------------*\
| =========                 |                                                 |
| \\      /  F ield         | foam-extend: Open Source CFD                    |
|  \\    /   O peration     | Version:     4.1                                |
|   \\  /    A nd           | Web:         http://www.foam-extend.org         |
|    \\/     M anipulation  |                                                 |
\*---------------------------------------------------------------------------*/
FoamFile
{
    version     2.0;
    format      ascii;
    class       volSymmTensorField;
    location    "1";
    object      epsilon;
}
// * * * * * * * * * * * * * * * * * * * * * * * * * * * * * * * * * * * * * //

dimensions      [0 0 0 0 0 0 0];

internalField   nonuniform List<symmTensor> 
1050
(
(1.89012940236e-05 -9.3046593279e-07 1.24499081664e-06 -5.24416239127e-06 -1.42680822373e-07 -5.58195795372e-06)
(1.76077913612e-05 -2.754753447e-06 6.90964675588e-07 -4.61427833376e-06 -1.72809508357e-07 -5.4508163842e-06)
(1.70451058739e-05 -4.41858363787e-06 1.15569667815e-06 -4.07653043702e-06 -3.18913763515e-07 -5.36671308201e-06)
(1.52310073972e-05 -5.77767913536e-06 1.6100732551e-06 -3.01925007441e-06 -5.05012730656e-07 -5.06427537369e-06)
(1.34461712223e-05 -6.88595953098e-06 1.95773486022e-06 -1.83164131796e-06 -7.38884940519e-07 -4.81924873682e-06)
(1.13840982669e-05 -7.65537120686e-06 2.25119435386e-06 -4.67666222441e-07 -1.01822273198e-06 -4.53185209137e-06)
(9.2866661178e-06 -8.14004768051e-06 2.44826136425e-06 1.00369659566e-06 -1.32586392819e-06 -4.27376532261e-06)
(7.21209625179e-06 -8.36177167508e-06 2.53387606731e-06 2.57063971096e-06 -1.64365132587e-06 -4.06219040122e-06)
(5.23764584986e-06 -8.37451299957e-06 2.48682457615e-06 4.25533849553e-06 -1.94159703764e-06 -3.93779138394e-06)
(3.36938146973e-06 -8.1871654164e-06 2.29076957473e-06 6.09985496007e-06 -2.17108286473e-06 -3.91932329951e-06)
(1.59953283706e-06 -7.78674879243e-06 1.95204547913e-06 8.18870985711e-06 -2.27663406258e-06 -4.03780103975e-06)
(-1.11576468135e-07 -7.00945682417e-06 1.50022358102e-06 1.04262925082e-05 -2.17457787471e-06 -4.24411799659e-06)
(-1.70956720628e-06 -5.74020478479e-06 1.01398102755e-06 1.27978601249e-05 -1.82787090432e-06 -4.53787820066e-06)
(-3.0035253382e-06 -3.8480376441e-06 6.12442003486e-07 1.46198476702e-05 -1.26669106698e-06 -4.8024650639e-06)
(-3.7124829522e-06 -9.03159682944e-07 3.79741554618e-07 1.5723531231e-05 -2.00215608433e-07 -4.88064026268e-06)
(1.83042510314e-05 -1.1070918711e-06 1.12782688731e-06 -4.53660945194e-06 2.81409137302e-07 -5.61337534723e-06)
(1.66683347955e-05 -3.91781673881e-06 4.363445571e-07 -3.73324877415e-06 3.17434010921e-07 -5.3981600716e-06)
(1.57394075764e-05 -6.18315465073e-06 7.63773216531e-07 -2.78763743101e-06 2.1857773226e-07 -5.32586410544e-06)
(1.340619662e-05 -7.97670662579e-06 1.08162659644e-06 -1.2565432964e-06 1.12663219375e-07 -5.00164121313e-06)
(1.10010143124e-05 -9.28822894202e-06 1.32902469648e-06 5.01690225957e-07 -2.28889318151e-08 -4.73079863419e-06)
(8.29850402159e-06 -1.0007476337e-05 1.55354242237e-06 2.45005235128e-06 -1.87604279591e-07 -4.41631387751e-06)
(5.5859281532e-06 -1.01797547562e-05 1.72026146074e-06 4.47472508251e-06 -3.68799563762e-07 -4.13071922846e-06)
(2.99054768075e-06 -9.82059286009e-06 1.81965244596e-06 6.48903355937e-06 -5.55107686495e-07 -3.89035205715e-06)
(6.69173326179e-07 -8.98816778475e-06 1.83727012916e-06 8.41465537434e-06 -7.25728148578e-07 -3.72877976795e-06)
(-1.25061843891e-06 -7.74049517516e-06 1.76637768915e-06 1.01500251767e-05 -8.51500497786e-07 -3.65689033515e-06)
(-2.64572930543e-06 -6.18893559389e-06 1.61653026263e-06 1.16053087944e-05 -9.05840239458e-07 -3.68778609697e-06)
(-3.43955484306e-06 -4.47016034007e-06 1.41262133912e-06 1.25916179252e-05 -8.55812369731e-07 -3.77716866731e-06)
(-3.66543168813e-06 -2.82227124347e-06 1.19578430889e-06 1.3186457823e-05 -7.0361254017e-07 -3.92558915988e-06)
(-3.47196811632e-06 -1.511025904e-06 1.03125948991e-06 1.3223358417e-05 -5.00792892227e-07 -4.06337576983e-06)
(-3.30811180959e-06 -1.90768204367e-07 9.35519004337e-07 1.32139898224e-05 1.24820316729e-07 -4.06981034216e-06)
(1.71902142465e-05 -1.18587129327e-06 1.05232840849e-06 -4.1695437919e-06 6.42352672046e-07 -5.31663814969e-06)
(1.53623475416e-05 -4.45433281873e-06 3.11323511695e-07 -3.28151230957e-06 6.90164529689e-07 -5.05645500811e-06)
(1.42086420785e-05 -6.98926932368e-06 5.57498092432e-07 -2.09751499373e-06 6.04891732572e-07 -4.99274753285e-06)
(1.15941687386e-05 -8.92511740349e-06 7.98575807476e-07 -3.19728349972e-07 5.21855409811e-07 -4.65744210981e-06)
(8.87129463365e-06 -1.02583016648e-05 9.80450320691e-07 1.72920153498e-06 4.20065448258e-07 -4.37875918523e-06)
(5.86967608993e-06 -1.08586108355e-05 1.15333631532e-06 3.94790220143e-06 3.00730431328e-07 -4.05600933913e-06)
(2.91304514462e-06 -1.07744461976e-05 1.29000761776e-06 6.18530094723e-06 1.77234258754e-07 -3.76075147529e-06)
(1.79751471457e-07 -1.00352109671e-05 1.38954476527e-06 8.29395500678e-06 5.7791722317e-08 -3.50496000759e-06)
(-2.12614638574e-06 -8.73923268416e-06 1.44721466071e-06 1.01321521943e-05 -4.43067569578e-08 -3.31493477257e-06)
(-3.84047179847e-06 -7.02719027384e-06 1.46559661482e-06 1.15397462912e-05 -1.14699030851e-07 -3.19212150437e-06)
(-4.85765844936e-06 -5.12425964422e-06 1.45605414409e-06 1.24302369813e-05 -1.49092838753e-07 -3.14303660076e-06)
(-5.18710749267e-06 -3.29686921871e-06 1.43467548068e-06 1.26868013103e-05 -1.39613075759e-07 -3.11905034013e-06)
(-5.01616800778e-06 -1.79960521819e-06 1.41332188702e-06 1.25958371413e-05 -1.089823528e-07 -3.14367707066e-06)
(-4.61442503549e-06 -8.64560079929e-07 1.41250934956e-06 1.2084665702e-05 -1.00744869021e-07 -3.13878927408e-06)
(-4.36177285734e-06 -9.48317990719e-08 1.41968755177e-06 1.18924201301e-05 2.94909386817e-07 -3.10563677241e-06)
(1.57758596392e-05 -1.2200709867e-06 1.0004351686e-06 -4.62206453132e-06 1.08641467863e-06 -4.54374769094e-06)
(1.37951899425e-05 -4.75066271114e-06 2.84331925121e-07 -3.65962015017e-06 1.13594962537e-06 -4.2448927865e-06)
(1.2498253628e-05 -7.43352784331e-06 5.04219504204e-07 -2.29575800978e-06 1.0539961985e-06 -4.19954054845e-06)
(9.72819256983e-06 -9.4053315641e-06 7.2418719491e-07 -3.44897745248e-07 9.73928610667e-07 -3.8700716738e-06)
(6.84160418009e-06 -1.06982157416e-05 8.8830459239e-07 1.88961528096e-06 8.82169268109e-07 -3.59968543535e-06)
(3.71942164028e-06 -1.11788941316e-05 1.05000190366e-06 4.24477256676e-06 7.78443889632e-07 -3.28239917105e-06)
(7.01350328267e-07 -1.09174245424e-05 1.18854944205e-06 6.54247905901e-06 6.76126898087e-07 -2.98531395505e-06)
(-2.01222050722e-06 -9.97596090394e-06 1.30912956355e-06 8.60179596065e-06 5.79055150118e-07 -2.71563323331e-06)
(-4.21749142999e-06 -8.50136240346e-06 1.41220143732e-06 1.0264680839e-05 4.92992623948e-07 -2.49279533907e-06)
(-5.77884379374e-06 -6.69258016696e-06 1.50166857603e-06 1.13916033548e-05 4.2085765245e-07 -2.31501099215e-06)
(-6.6556242341e-06 -4.81470084256e-06 1.58316370725e-06 1.19553584794e-05 3.55746808918e-07 -2.18699882379e-06)
(-6.93376106637e-06 -3.11709914765e-06 1.65906247475e-06 1.19469811853e-05 2.97550993742e-07 -2.07286061871e-06)
(-6.8379501602e-06 -1.78480638337e-06 1.72503160619e-06 1.17138814648e-05 2.24787661254e-07 -2.00790808908e-06)
(-6.59406228683e-06 -9.17624576819e-07 1.78292991021e-06 1.11855553258e-05 1.10230216831e-07 -1.92788472546e-06)
(-6.48219912916e-06 -1.76233233965e-07 1.82335658332e-06 1.10492701707e-05 3.86607846393e-07 -1.8641265331e-06)
(1.41703480957e-05 -1.25981036978e-06 9.57313932479e-07 -6.26703265102e-06 1.57893785394e-06 -3.21052909343e-06)
(1.20644636852e-05 -4.97544797987e-06 3.13395883179e-07 -5.23034453528e-06 1.62226492326e-06 -2.88184101992e-06)
(1.0664923369e-05 -7.77473888943e-06 5.3929179355e-07 -3.70873463267e-06 1.53445430586e-06 -2.86496116228e-06)
(7.81286838648e-06 -9.75969551432e-06 7.68796907805e-07 -1.60624409928e-06 1.44194801197e-06 -2.56283752552e-06)
(4.84595406168e-06 -1.10123724332e-05 9.42558756017e-07 7.77658787244e-07 1.34081381348e-06 -2.32112416786e-06)
(1.69512559346e-06 -1.14157759673e-05 1.11499550513e-06 3.2264474021e-06 1.22826652857e-06 -2.03043805176e-06)
(-1.30562942121e-06 -1.10700780575e-05 1.27023586022e-06 5.5499785532e-06 1.11735744929e-06 -1.75080240636e-06)
(-3.96062975979e-06 -1.00730415037e-05 1.41629185595e-06 7.56233231578e-06 1.0084330394e-06 -1.48527583345e-06)
(-6.09735586559e-06 -8.60239639616e-06 1.55509830335e-06 9.12623134687e-06 9.02320026977e-07 -1.2488622204e-06)
(-7.62887278847e-06 -6.87203667887e-06 1.68857088566e-06 1.01490533827e-05 7.96569774824e-07 -1.03904164056e-06)
(-8.56752708484e-06 -5.12351983752e-06 1.81677430366e-06 1.06628093387e-05 6.81428170037e-07 -8.63349564467e-07)
(-9.02765872964e-06 -3.54458991577e-06 1.93457367199e-06 1.07060935671e-05 5.58166441212e-07 -6.9368901743e-07)
(-9.19928380497e-06 -2.24332587235e-06 2.03278877062e-06 1.06119663792e-05 4.1011994393e-07 -5.75280259564e-07)
(-9.24119705374e-06 -1.26632545911e-06 2.10992940971e-06 1.02543358423e-05 2.23785303599e-07 -4.44812684089e-07)
(-9.29510966836e-06 -3.05339269649e-07 2.1561372134e-06 1.02306103082e-05 4.29174804476e-07 -3.61753329276e-07)
(1.24051268315e-05 -1.34865279647e-06 9.12456163478e-07 -9.57559930684e-06 2.09038820173e-06 -1.12726928244e-06)
(1.0188256431e-05 -5.31183037594e-06 3.7497322585e-07 -8.42169730557e-06 2.12214541049e-06 -7.89844950148e-07)
(8.666037892e-06 -8.29240352527e-06 6.26946328515e-07 -6.68316657713e-06 2.02188186065e-06 -8.1899591864e-07)
(5.73387390039e-06 -1.03438080742e-05 8.83733102175e-07 -4.34960216051e-06 1.90686062916e-06 -5.77511931167e-07)
(2.68031788452e-06 -1.16037815395e-05 1.08412687121e-06 -1.73476912628e-06 1.78301386244e-06 -3.9547526169e-07)
(-5.09587051538e-07 -1.19867617297e-05 1.28015173413e-06 8.96012905084e-07 1.6449788508e-06 -1.63556370313e-07)
(-3.52269258069e-06 -1.16237880237e-05 1.45956447626e-06 3.34729951884e-06 1.50561016897e-06 6.87207690836e-08)
(-6.1826867864e-06 -1.0642690682e-05 1.63068426774e-06 5.44440262748e-06 1.36354852718e-06 3.01681261324e-07)
(-8.356596585e-06 -9.23172572535e-06 1.79515560946e-06 7.08075019453e-06 1.2178703924e-06 5.23978501467e-07)
(-9.99696081983e-06 -7.59076868664e-06 1.95268829934e-06 8.20718870517e-06 1.065139847e-06 7.36456426313e-07)
(-1.11374404566e-05 -5.91825904445e-06 2.10050992437e-06 8.8816352363e-06 8.97581315023e-07 9.29418760607e-07)
(-1.18774293552e-05 -4.34284887692e-06 2.2308874089e-06 9.15322048586e-06 7.19284861735e-07 1.12098600534e-06)
(-1.23503382607e-05 -2.9364380833e-06 2.33599894022e-06 9.29680188229e-06 5.18404475436e-07 1.26465545627e-06)
(-1.26459011774e-05 -1.72628723764e-06 2.41503145712e-06 9.15257064541e-06 2.89118275635e-07 1.41501473839e-06)
(-1.28469768264e-05 -4.43310008652e-07 2.45612015647e-06 9.2401995821e-06 4.40462709516e-07 1.50872042121e-06)
(1.04119810733e-05 -1.50207374127e-06 8.60495618931e-07 -1.45097497779e-05 2.69308484397e-06 1.72198771946e-06)
(8.11521005275e-06 -5.81103757921e-06 4.71937887268e-07 -1.31998132371e-05 2.70252938449e-06 2.04210324019e-06)
(6.42169481974e-06 -9.06202759963e-06 7.7192450434e-07 -1.11620402694e-05 2.57973546308e-06 1.95170602404e-06)
(3.3840985539e-06 -1.12539293909e-05 1.07272831362e-06 -8.49219016565e-06 2.42863115966e-06 2.09987080327e-06)
(1.99490591451e-07 -1.25789120747e-05 1.31502448862e-06 -5.52832407591e-06 2.26568168652e-06 2.19211964961e-06)
(-3.08384515514e-06 -1.29896366422e-05 1.54502001779e-06 -2.58248831368e-06 2.08397828888e-06 2.33296500155e-06)
(-6.17883241872e-06 -1.26420246019e-05 1.75386655533e-06 1.43928518222e-07 1.89684831035e-06 2.48592017022e-06)
(-8.92896657337e-06 -1.16857813532e-05 1.94907042149e-06 2.48910194167e-06 1.7033356229e-06 2.65408365836e-06)
(-1.12320022866e-05 -1.03073581946e-05 2.13191432348e-06 4.37020515617e-06 1.50314224821e-06 2.82901044109e-06)
(-1.3060398364e-05 -8.68576246116e-06 2.3012405269e-06 5.76252756795e-06 1.29435756123e-06 3.00964585743e-06)
(-1.44450475258e-05 -6.98293149357e-06 2.45407589794e-06 6.72492247971e-06 1.07249239179e-06 3.18462028765e-06)
(-1.54576361127e-05 -5.29552660648e-06 2.58357471439e-06 7.29812793425e-06 8.43702955349e-07 3.36465104271e-06)
(-1.61821821527e-05 -3.68807149724e-06 2.68535266536e-06 7.69590278859e-06 5.99355986659e-07 3.50599857216e-06)
(-1.66699378741e-05 -2.19329511185e-06 2.7608051336e-06 7.75715731277e-06 3.38514109491e-07 3.65499213477e-06)
(-1.69767502115e-05 -5.71426376286e-07 2.79244189507e-06 7.9355191731e-06 4.30179931883e-07 3.74916826738e-06)
(8.13564468611e-06 -1.82381161381e-06 7.85493954496e-07 -2.26008505824e-05 3.22841086405e-06 5.93483775194e-06)
(5.77046291858e-06 -6.82346474239e-06 5.66071228576e-07 -2.09613696981e-05 3.21647753739e-06 6.16498226309e-06)
(3.72526987937e-06 -1.05920390255e-05 9.17000097066e-07 -1.83577095336e-05 3.07194879029e-06 5.97732684006e-06)
(4.14184849916e-07 -1.31044468615e-05 1.2610082588e-06 -1.50259313328e-05 2.88727280606e-06 5.96788908241e-06)
(-3.09656526684e-06 -1.45948753959e-05 1.54701521449e-06 -1.1365782844e-05 2.6859023071e-06 5.90837940142e-06)
(-6.66761413419e-06 -1.50662290948e-05 1.81139634796e-06 -7.75288231321e-06 2.46059275487e-06 5.89345823551e-06)
(-1.00278803319e-05 -1.47029714368e-05 2.04863632781e-06 -4.41401126929e-06 2.22516922633e-06 5.90374940093e-06)
(-1.30295831278e-05 -1.36828609529e-05 2.26470417788e-06 -1.51122897676e-06 1.98053439669e-06 5.94585010998e-06)
(-1.55870922925e-05 -1.21991000993e-05 2.46075656916e-06 8.80525647771e-07 1.72833312319e-06 6.01501162961e-06)
(-1.76791454134e-05 -1.04250770083e-05 2.63582812581e-06 2.74597017407e-06 1.4690251767e-06 6.10889947706e-06)
(-1.93274035427e-05 -8.50995303951e-06 2.78816229916e-06 4.13421078205e-06 1.20151080066e-06 6.21634267288e-06)
(-2.05821162241e-05 -6.54528679607e-06 2.91297754375e-06 5.08324954211e-06 9.32458626071e-07 6.34100882211e-06)
(-2.14987534248e-05 -4.60770201175e-06 3.00950323107e-06 5.75488163039e-06 6.56112801991e-07 6.44658433112e-06)
(-2.21121888366e-05 -2.73812103061e-06 3.08118798027e-06 6.02717959381e-06 3.74537641742e-07 6.56542433037e-06)
(-2.24870933021e-05 -7.13958152536e-07 3.10270865295e-06 6.28701856669e-06 3.99991086816e-07 6.64649310928e-06)
(5.23820018429e-06 -2.1852685902e-06 6.77480078886e-07 -3.14169482334e-05 3.94596979661e-06 1.09241799635e-05)
(2.97191988336e-06 -7.87606058385e-06 7.20882172149e-07 -2.94908372653e-05 3.89474061154e-06 1.10109561793e-05)
(5.16840561074e-07 -1.21480309165e-05 1.15615725605e-06 -2.6261631736e-05 3.71194195567e-06 1.07156459447e-05)
(-3.05781453961e-06 -1.49900398826e-05 1.56670688827e-06 -2.22282377838e-05 3.47507737268e-06 1.05195161939e-05)
(-6.89958772856e-06 -1.66506271864e-05 1.91610169128e-06 -1.78251972024e-05 3.2139231794e-06 1.02818122054e-05)
(-1.07672855524e-05 -1.71809401585e-05 2.22846562574e-06 -1.34893836794e-05 2.92385053153e-06 1.00822934106e-05)
(-1.44020027071e-05 -1.67856675342e-05 2.50323532743e-06 -9.4781747704e-06 2.62060333957e-06 9.91971255119e-06)
(-1.76562614165e-05 -1.5667495784e-05 2.74589983638e-06 -5.96212451544e-06 2.30837108811e-06 9.80418806903e-06)
(-2.04499588173e-05 -1.40301096529e-05 2.9589168866e-06 -3.01928245729e-06 1.99132595778e-06 9.73474860338e-06)
(-2.27606770314e-05 -1.20520953577e-05 3.14296990472e-06 -6.64925226951e-07 1.67214355242e-06 9.70866055382e-06)
(-2.46013208099e-05 -9.88449232434e-06 3.29841971879e-06 1.13831900776e-06 1.35226147295e-06 9.71609160199e-06)
(-2.60117460242e-05 -7.62906089923e-06 3.42308719745e-06 2.43341130376e-06 1.03740518603e-06 9.75515207345e-06)
(-2.70316722611e-05 -5.37845502422e-06 3.51895577511e-06 3.33658012204e-06 7.24515608701e-07 9.79945504933e-06)
(-2.77002275838e-05 -3.17798096297e-06 3.59087814556e-06 3.79772718381e-06 4.18043629867e-07 9.86476662049e-06)
(-2.80987716791e-05 -8.23927398687e-07 3.60549049216e-06 4.1124140561e-06 3.44985418904e-07 9.91849389811e-06)
(1.8837820699e-06 -3.02803317755e-06 8.88127763452e-07 -4.71535424098e-05 7.96626801927e-06 1.79616662899e-05)
(-3.25709419885e-07 -1.04011757468e-05 1.57611796642e-06 -4.43957792348e-05 7.76221152847e-06 1.77090411915e-05)
(-3.73814882993e-06 -1.57877924245e-05 2.50549309552e-06 -3.97877881888e-05 7.33696273393e-06 1.72359720552e-05)
(-8.157567887e-06 -1.93801225088e-05 3.31810613007e-06 -3.41544247132e-05 6.8006547065e-06 1.67386154249e-05)
(-1.29212455072e-05 -2.13718200606e-05 4.00437988066e-06 -2.80940382959e-05 6.20131390902e-06 1.62051102241e-05)
(-1.76132307849e-05 -2.19099238314e-05 4.58212275213e-06 -2.21716066047e-05 5.55974953122e-06 1.5694699895e-05)
(-2.19479169154e-05 -2.1270580842e-05 5.06561731366e-06 -1.67330673214e-05 4.90517043451e-06 1.523072445e-05)
(-2.57586669763e-05 -1.97369219785e-05 5.46896830207e-06 -1.19863212417e-05 4.25270190447e-06 1.48300444979e-05)
(-2.89697701844e-05 -1.75767749057e-05 5.80413103414e-06 -8.020952413e-06 3.61256082109e-06 1.44986471795e-05)
(-3.157210787e-05 -1.50194982448e-05 6.07993224434e-06 -4.84378365122e-06 2.9904643532e-06 1.42366206507e-05)
(-3.35963478291e-05 -1.22514947976e-05 6.3031948557e-06 -2.40708085854e-06 2.38960726195e-06 1.40385524842e-05)
(-3.51028805911e-05 -9.40672316973e-06 6.47750986352e-06 -6.35194360965e-07 1.81339933886e-06 1.38997318213e-05)
(-3.61457807819e-05 -6.59399961238e-06 6.60781118076e-06 5.69364685084e-07 1.26047405106e-06 1.38067576705e-05)
(-3.67811407851e-05 -3.86503183314e-06 6.70245362747e-06 1.26171303779e-06 7.38481121987e-07 1.37543227372e-05)
(-3.71584019375e-05 -9.95720757132e-07 6.72489082261e-06 1.6412137462e-06 4.05385535855e-07 1.37459155506e-05)
(1.19668348897e-05 -5.81478529287e-07 2.14652138023e-06 -3.16068155628e-06 -1.1010576616e-07 -4.21003588431e-06)
(1.15839017536e-05 -1.71860592321e-06 1.75461079222e-06 -2.85866801442e-06 -2.21414626696e-07 -4.31485861236e-06)
(1.10004070034e-05 -2.72368164705e-06 2.98645009005e-06 -2.49547893888e-06 -5.55866072714e-07 -4.147851816e-06)
(9.86948810678e-06 -3.5611062058e-06 4.11065049145e-06 -1.85680807103e-06 -9.99417048555e-07 -3.9428000469e-06)
(8.74586469547e-06 -4.24365748395e-06 4.99549797144e-06 -1.14058719759e-06 -1.55489721162e-06 -3.76235075445e-06)
(7.45672967623e-06 -4.72221001467e-06 5.74233215303e-06 -3.19569121023e-07 -2.22094707849e-06 -3.55340588393e-06)
(6.15879629166e-06 -5.03812912854e-06 6.2441619712e-06 5.66016102798e-07 -2.95276089181e-06 -3.36503201985e-06)
(4.88341952349e-06 -5.21104187309e-06 6.46523514336e-06 1.51596157806e-06 -3.70760391704e-06 -3.20765702223e-06)
(3.67425287929e-06 -5.28362870423e-06 6.35406897936e-06 2.5579584667e-06 -4.41272795703e-06 -3.11026730045e-06)
(2.51866464935e-06 -5.26285940866e-06 5.87179131054e-06 3.74037242478e-06 -4.95361909458e-06 -3.08580193317e-06)
(1.38959638315e-06 -5.12923843794e-06 5.039065301e-06 5.1430978405e-06 -5.20217396157e-06 -3.1545546873e-06)
(2.41697288232e-07 -4.7436891706e-06 3.92666003949e-06 6.72903097037e-06 -4.97591353054e-06 -3.29186146499e-06)
(-8.90433112433e-07 -3.97954707401e-06 2.72430368679e-06 8.45203977044e-06 -4.16723509355e-06 -3.47438400175e-06)
(-1.8418947897e-06 -2.71337106029e-06 1.72964820667e-06 9.87964048491e-06 -2.92107810815e-06 -3.69992452807e-06)
(-2.38770459861e-06 -6.59634373754e-07 1.11914336251e-06 1.07020282329e-05 -3.88996426007e-07 -3.69829657366e-06)
(1.16814389879e-05 -7.12690117614e-07 1.97278724657e-06 -2.90744126139e-06 9.0734590403e-07 -4.24114815695e-06)
(1.10501197531e-05 -2.46789345636e-06 1.16648557435e-06 -2.46081406499e-06 9.33987024176e-07 -4.27343779149e-06)
(1.02444381488e-05 -3.84697745444e-06 2.06764036295e-06 -1.8616913025e-06 6.77715652244e-07 -4.11074366429e-06)
(8.78339270989e-06 -4.96084251133e-06 2.87837390256e-06 -9.22450039915e-07 3.9992032914e-07 -3.88933306683e-06)
(7.26816067319e-06 -5.76851945783e-06 3.53013937173e-06 1.48488785109e-07 4.60362784488e-08 -3.68851299352e-06)
(5.57820472846e-06 -6.2136907736e-06 4.11633487575e-06 1.33011683733e-06 -3.79534579394e-07 -3.46067114126e-06)
(3.89622715905e-06 -6.33466293386e-06 4.54865870637e-06 2.5551357525e-06 -8.3776971429e-07 -3.25631249025e-06)
(2.29354677949e-06 -6.14942989702e-06 4.80695303967e-06 3.78032538609e-06 -1.29676985299e-06 -3.08695522452e-06)
(8.57097312364e-07 -5.70148001632e-06 4.86130025419e-06 4.9753224641e-06 -1.70004154095e-06 -2.97793942581e-06)
(-3.54266755688e-07 -5.02189792602e-06 4.70568215099e-06 6.10035537656e-06 -1.97478167161e-06 -2.93721003485e-06)
(-1.28350854282e-06 -4.15845373684e-06 4.37830213452e-06 7.1174971926e-06 -2.06241479777e-06 -2.97176642214e-06)
(-1.89201247199e-06 -3.15700949958e-06 3.94911586679e-06 7.91654066908e-06 -1.90473582554e-06 -3.05369305027e-06)
(-2.17873266526e-06 -2.125457726e-06 3.51431440849e-06 8.48361903303e-06 -1.50848120286e-06 -3.15904331969e-06)
(-2.19797379993e-06 -1.20659327054e-06 3.21180667992e-06 8.74681864893e-06 -1.07996754267e-06 -3.29677383001e-06)
(-2.17938338006e-06 -1.81376841631e-07 3.03186255444e-06 8.79147193995e-06 1.96284336626e-07 -3.26152806069e-06)
(1.10204839099e-05 -7.82531376917e-07 1.86252760949e-06 -2.80150353243e-06 1.86301639552e-06 -4.02061351558e-06)
(1.02339591002e-05 -2.88417120265e-06 8.59948378217e-07 -2.2578548604e-06 1.92928034161e-06 -4.02608440621e-06)
(9.27349327223e-06 -4.47054560474e-06 1.56049800058e-06 -1.49666722546e-06 1.70026886978e-06 -3.86854602259e-06)
(7.60143069532e-06 -5.70768838605e-06 2.18959344149e-06 -3.66489560392e-07 1.47736146975e-06 -3.64172994421e-06)
(5.84948079772e-06 -6.54776087325e-06 2.68706052286e-06 9.24901733976e-07 1.20171965874e-06 -3.43755298464e-06)
(3.93061139599e-06 -6.92368990915e-06 3.15599351764e-06 2.31606355347e-06 8.8155599545e-07 -3.20583848639e-06)
(2.0525221736e-06 -6.87493910426e-06 3.52677664575e-06 3.71255495294e-06 5.55956215508e-07 -2.99598703493e-06)
(3.20274959002e-07 -6.42753877471e-06 3.79973603908e-06 5.02980993777e-06 2.48242517712e-07 -2.81630754763e-06)
(-1.14713753058e-06 -5.64852801842e-06 3.96692656264e-06 6.19315099418e-06 -5.27501208292e-09 -2.68668557756e-06)
(-2.26117045096e-06 -4.62044060664e-06 4.04123957135e-06 7.11698987459e-06 -1.69152707002e-07 -2.60818525374e-06)
(-2.9654957643e-06 -3.46741446294e-06 4.05809073155e-06 7.75461720761e-06 -2.3953022784e-07 -2.58285738498e-06)
(-3.26418737701e-06 -2.33426371831e-06 4.05917827053e-06 8.03167020403e-06 -2.10839337846e-07 -2.58104168274e-06)
(-3.25527662368e-06 -1.36284167496e-06 4.0666959259e-06 8.07361916511e-06 -1.32172340909e-07 -2.59517418702e-06)
(-3.08553611854e-06 -6.96572532043e-07 4.12275366974e-06 7.90152178001e-06 -1.65075679253e-07 -2.63251547316e-06)
(-2.97304839485e-06 -9.38904072461e-08 4.16460590179e-06 7.75307335123e-06 4.77035479489e-07 -2.56588740122e-06)
(1.01266032185e-05 -8.16116185429e-07 1.79585387165e-06 -3.18989245994e-06 3.06814890505e-06 -3.45130503282e-06)
(9.21450014269e-06 -3.13199766252e-06 7.92222596507e-07 -2.57491881588e-06 3.15043588416e-06 -3.42884249276e-06)
(8.15378150254e-06 -4.84459811599e-06 1.42379586573e-06 -1.68876314653e-06 2.92650287132e-06 -3.28412289612e-06)
(6.3532531774e-06 -6.13166412007e-06 2.00403493041e-06 -4.22022761324e-07 2.7104093309e-06 -3.05959468665e-06)
(4.46541350716e-06 -6.96499335243e-06 2.45986575387e-06 1.01720003635e-06 2.45866664172e-06 -2.86022740644e-06)
(2.43240803401e-06 -7.2729156894e-06 2.90624418614e-06 2.52838683524e-06 2.17551266468e-06 -2.63029413446e-06)
(4.74741834215e-07 -7.10684906528e-06 3.28988957217e-06 3.99695706644e-06 1.89862659727e-06 -2.41624344862e-06)
(-1.28510861642e-06 -6.51130661032e-06 3.62598018375e-06 5.31274527665e-06 1.63865900283e-06 -2.22278577181e-06)
(-2.72284301166e-06 -5.58317774188e-06 3.91768186439e-06 6.38406403506e-06 1.41138047687e-06 -2.06479126437e-06)
(-3.75985029062e-06 -4.44488412749e-06 4.17752228993e-06 7.12997571437e-06 1.22265872483e-06 -1.94098657348e-06)
(-4.37344063211e-06 -3.25538795653e-06 4.42180629914e-06 7.53456639159e-06 1.05090690238e-06 -1.85278749049e-06)
(-4.61366706333e-06 -2.16388992232e-06 4.6546244632e-06 7.59275006679e-06 8.86853389492e-07 -1.77973923665e-06)
(-4.61173042752e-06 -1.28165491412e-06 4.86006630149e-06 7.48140579096e-06 6.91374430961e-07 -1.72462962571e-06)
(-4.50182798852e-06 -6.7370738731e-07 5.03876050111e-06 7.24616585367e-06 3.48411091599e-07 -1.70268637739e-06)
(-4.45220281838e-06 -1.33069041735e-07 5.15248613788e-06 7.08995356019e-06 6.34769802442e-07 -1.61379700539e-06)
(9.08502184701e-06 -8.45666844863e-07 1.74645971969e-06 -4.32003403958e-06 4.41621055949e-06 -2.49900886527e-06)
(8.06511256479e-06 -3.31116554665e-06 8.72278491971e-07 -3.64383101754e-06 4.48802611233e-06 -2.44950850233e-06)
(6.9376677079e-06 -5.11982291841e-06 1.51873181706e-06 -2.64684068092e-06 4.24553045918e-06 -2.32897280061e-06)
(5.06387339993e-06 -6.4311935348e-06 2.12915808965e-06 -1.26437507246e-06 3.99379529658e-06 -2.1217014824e-06)
(3.10329705519e-06 -7.25096181741e-06 2.61233233367e-06 2.92855298697e-07 3.71414230503e-06 -1.94267583087e-06)
(1.02618602099e-06 -7.5139448681e-06 3.08958361508e-06 1.88891549432e-06 3.40348269398e-06 -1.73050308172e-06)
(-9.48242945464e-07 -7.28954152287e-06 3.519968413e-06 3.39943010758e-06 3.09812069155e-06 -1.52712330603e-06)
(-2.69700118526e-06 -6.64326248452e-06 3.92562610698e-06 4.70675049378e-06 2.79888428528e-06 -1.33394737234e-06)
(-4.11088492774e-06 -5.69202082679e-06 4.31236999971e-06 5.72700262085e-06 2.50816586998e-06 -1.16255413403e-06)
(-5.13680099416e-06 -4.57174063307e-06 4.68582972844e-06 6.40365315167e-06 2.21847195314e-06 -1.01120482432e-06)
(-5.78291605959e-06 -3.43419005017e-06 5.04622940075e-06 6.75691370395e-06 1.90267484988e-06 -8.83992273683e-07)
(-6.1195264514e-06 -2.39844618664e-06 5.37868432773e-06 6.81533226952e-06 1.55882532501e-06 -7.66322493688e-07)
(-6.2638715226e-06 -1.53138274065e-06 5.65649988534e-06 6.75816412786e-06 1.1615271493e-06 -6.69782376876e-07)
(-6.31629562218e-06 -8.66211420784e-07 5.87543953886e-06 6.60506003718e-06 6.32679594909e-07 -6.08473815969e-07)
(-6.35919841427e-06 -2.09749249611e-07 6.00101647811e-06 6.49793029747e-06 7.1207798901e-07 -5.05549948197e-07)
(7.92874673228e-06 -9.02586578706e-07 1.69359945024e-06 -6.53321205213e-06 5.82632171505e-06 -1.02165027853e-06)
(6.80598254831e-06 -3.54837071374e-06 1.04169128439e-06 -5.77289848048e-06 5.87090804176e-06 -9.54278069785e-07)
(5.60622745573e-06 -5.48837789529e-06 1.75764670624e-06 -4.627827666e-06 5.59306407713e-06 -8.73766119273e-07)
(3.6672468488e-06 -6.8509005554e-06 2.44680329321e-06 -3.0833742029e-06 5.27828602887e-06 -7.07333756532e-07)
(1.63827535136e-06 -7.68235570962e-06 3.00327364594e-06 -1.36123034413e-06 4.93522335867e-06 -5.7124202886e-07)
(-4.78924946647e-07 -7.93411902745e-06 3.54580377701e-06 3.69388283681e-07 4.55298632622e-06 -4.00514030842e-07)
(-2.47705488766e-06 -7.69511132687e-06 4.04271990025e-06 1.97962129234e-06 4.16726137734e-06 -2.30291708664e-07)
(-4.24289837927e-06 -7.04945193709e-06 4.51674320155e-06 3.35606762386e-06 3.77405209837e-06 -5.94196729259e-08)
(-5.68971216955e-06 -6.12162018273e-06 4.97240180405e-06 4.43132427442e-06 3.371069245e-06 1.03162156349e-07)
(-6.78706238484e-06 -5.04150481544e-06 5.40882720549e-06 5.1743239231e-06 2.9486107227e-06 2.57937847108e-07)
(-7.55634447819e-06 -3.93780352568e-06 5.81839679832e-06 5.62211277112e-06 2.48600047026e-06 3.98766720987e-07)
(-8.06063637255e-06 -2.89546285488e-06 6.17967526047e-06 5.81255046803e-06 1.99019525043e-06 5.33596186093e-07)
(-8.38564287027e-06 -1.95917768389e-06 6.47059920474e-06 5.89502734279e-06 1.44839905507e-06 6.47809899634e-07)
(-8.59104897541e-06 -1.15129427275e-06 6.68948838974e-06 5.86743899237e-06 8.03796703308e-07 7.25602556175e-07)
(-8.72166324751e-06 -2.96725868215e-07 6.8010276579e-06 5.82288836922e-06 7.38989616962e-07 8.34401535232e-07)
(6.62055679719e-06 -9.99405338712e-07 1.62668538794e-06 -9.83967016282e-06 7.46347350675e-06 1.00792115793e-06)
(5.40694843616e-06 -3.88745180357e-06 1.3035640509e-06 -8.97181412632e-06 7.45053683797e-06 1.08058524449e-06)
(4.10917141104e-06 -6.01623171563e-06 2.14598517832e-06 -7.62442510958e-06 7.1111812248e-06 1.10668721103e-06)
(2.09178077108e-06 -7.47621208529e-06 2.9572309852e-06 -5.85135489962e-06 6.69704515422e-06 1.20886459903e-06)
(-3.0911919289e-08 -8.35562889152e-06 3.62613719856e-06 -3.88943851435e-06 6.24690902398e-06 1.28021958734e-06)
(-2.21858470892e-06 -8.62764265035e-06 4.25959211321e-06 -1.94056106878e-06 5.74480367118e-06 1.38583686397e-06)
(-4.28024611848e-06 -8.39744760754e-06 4.83465209733e-06 -1.37744947184e-07 5.22782498324e-06 1.49928011236e-06)
(-6.11367969191e-06 -7.76325044118e-06 5.37173277715e-06 1.41213758241e-06 4.69312601362e-06 1.62364992385e-06)
(-7.65063429276e-06 -6.84894628543e-06 5.87427851981e-06 2.65542392848e-06 4.14024334797e-06 1.75211693635e-06)
(-8.87249664869e-06 -5.77255013605e-06 6.33905881582e-06 3.57587148387e-06 3.56394725187e-06 1.8838127894e-06)
(-9.79901614352e-06 -4.6411606628e-06 6.75803362502e-06 4.21159378472e-06 2.95282800974e-06 2.01113372935e-06)
(-1.04767584366e-05 -3.52024328868e-06 7.11269256309e-06 4.59559730703e-06 2.32029432418e-06 2.13755631758e-06)
(-1.09614128227e-05 -2.44963616069e-06 7.3905322413e-06 4.84307698524e-06 1.66047916404e-06 2.24798705576e-06)
(-1.12886695447e-05 -1.45786052686e-06 7.59649093597e-06 4.94406456223e-06 9.32125954879e-07 2.32692158285e-06)
(-1.14858253877e-05 -3.81082036193e-07 7.68296621389e-06 4.9592119406e-06 7.31149922434e-07 2.43266725475e-06)
(5.12787596712e-06 -1.19465949539e-06 1.51466080622e-06 -1.50403092137e-05 9.00827117347e-06 3.88484673585e-06)
(3.82448295913e-06 -4.52512078834e-06 1.57589258796e-06 -1.39575472018e-05 8.93498952077e-06 3.91932893119e-06)
(2.32787491179e-06 -6.98392068899e-06 2.56332439488e-06 -1.2245591303e-05 8.53106252608e-06 3.86368561229e-06)
(1.39233090533e-07 -8.64162855772e-06 3.50329277339e-06 -1.00471720693e-05 8.01768893683e-06 3.85708029026e-06)