/*--------------------------------*- C++ -*----------------------------------*\
| =========                 |                                                 |
| \\      /  F ield         | foam-extend: Open Source CFD                    |
|  \\    /   O peration     | Version:     4.1                                |
|   \\  /    A nd           | Web:         http://www.foam-extend.org         |
|    \\/     M anipulation  |                                                 |
\*---------------------------------------------------------------------------*/
FoamFile
{
    version     2.0;
    format      ascii;
    class       volScalarField;
    location    "1";
    object      epsilonEq;
}
// * * * * * * * * * * * * * * * * * * * * * * * * * * * * * * * * * * * * * //

dimensions      [0 0 0 0 0 0 0];

internalField   nonuniform List<scalar> 
1050
(
1.63106206676e-05
1.54545594838e-05
1.54621045974e-05
1.46554974791e-05
1.40375180838e-05
1.33212910226e-05
1.2687860689e-05
1.21736979916e-05
1.18584272373e-05
1.17653923514e-05
1.19484667685e-05
1.22928813601e-05
1.28487607476e-05
1.32645526233e-05
1.34135507428e-05
1.57083007498e-05
1.49054011913e-05
1.51041923945e-05
1.45810603188e-05
1.42465032676e-05
1.38130984431e-05
1.3416722546e-05
1.30613745454e-05
1.27796184835e-05
1.25517434647e-05
1.23691063463e-05
1.21226247789e-05
1.18903988168e-05
1.15421912376e-05
1.13318899638e-05
1.47698740705e-05
1.40645923502e-05
1.44539575187e-05
1.42070266026e-05
1.41586530225e-05
1.40020265392e-05
1.38313373111e-05
1.36175507291e-05
1.33610273842e-05
1.3023522224e-05
1.26028238638e-05
1.20301585454e-05
1.14785680912e-05
1.08454546722e-05
1.05765699392e-05
1.37516571091e-05
1.31157044004e-05
1.3671043101e-05
1.36496338196e-05
1.38226055718e-05
1.38725686157e-05
1.38632115414e-05
1.37489382607e-05
1.35197320217e-05
1.31489773461e-05
1.26599052535e-05
1.203707917e-05
1.14800121543e-05
1.08939175001e-05
1.07130838262e-05
1.29880572401e-05
1.240903025e-05
1.30717972595e-05
1.32062404432e-05
1.35094350929e-05
1.36812148835e-05
1.37675192017e-05
1.37250715844e-05
1.35508136721e-05
1.3240662141e-05
1.28418183358e-05
1.2369680947e-05
1.20001036617e-05
1.16290511024e-05
1.15740597708e-05
1.31637492722e-05
1.26688782843e-05
1.33285206884e-05
1.35335595061e-05
1.38625033652e-05
1.40742581363e-05
1.4204083534e-05
1.42235749888e-05
1.41401780236e-05
1.39667291084e-05
1.37523471573e-05
1.3514528969e-05
1.33713784188e-05
1.32172337438e-05
1.32685385571e-05
1.5067066813e-05
1.46916162884e-05
1.51830780195e-05
1.53267142432e-05
1.55415820309e-05
1.56809803195e-05
1.57727569128e-05
1.58051527587e-05
1.57888357651e-05
1.57381945426e-05
1.56851729065e-05
1.56357944168e-05
1.56515956268e-05
1.56481919417e-05
1.57590628901e-05
2.02761861351e-05
1.99663077549e-05
2.01093567564e-05
1.99994410803e-05
1.99085239126e-05
1.97941773251e-05
1.96849772658e-05
1.95844614689e-05
1.95013349392e-05
1.94427527372e-05
1.94198424203e-05
1.94269103141e-05
1.9484991648e-05
1.95351938111e-05
1.96560636591e-05
2.7053575417e-05
2.67713695065e-05
2.65185908855e-05
2.60753463861e-05
2.56126627775e-05
2.51658353779e-05
2.47719476129e-05
2.44469472719e-05
2.41982442855e-05
2.40261680088e-05
2.39270199135e-05
2.38885546605e-05
2.39051177713e-05
2.39400700251e-05
2.40340875031e-05
4.03970929899e-05
3.98607442611e-05
3.90081954975e-05
3.7955662233e-05
3.6843359328e-05
3.57639258365e-05
3.47821241609e-05
3.39328930535e-05
3.32317717217e-05
3.26798185653e-05
3.22681495398e-05
3.19824238132e-05
3.18010598827e-05
3.16915598925e-05
3.16981010469e-05
1.07639399431e-05
1.05405738033e-05
1.06897343946e-05
1.07093235025e-05
1.08868833812e-05
1.10894255905e-05
1.13135340743e-05
1.15018951421e-05
1.16044356274e-05
1.15449176777e-05
1.13154014957e-05
1.08635536423e-05
1.03273641755e-05
9.8722036953e-06
9.3269218099e-06
1.05354590922e-05
1.02261480099e-05
1.02728323041e-05
1.01317251255e-05
1.01094007805e-05
1.00762476613e-05
1.00648004e-05
1.00437182274e-05
9.98996379202e-06
9.86111698693e-06
9.65534145187e-06
9.34576203888e-06
9.00690217374e-06
8.73907393048e-06
8.46413618969e-06
1.01552541958e-05
9.87928648812e-06
9.95776012812e-06
9.86521782517e-06
9.87428835885e-06
9.84407991169e-06
9.81291508075e-06
9.75769402654e-06
9.6719061557e-06
9.53241894807e-06
9.34786064951e-06
9.09839731323e-06
8.85788666651e-06
8.65311731092e-06
8.52679882936e-06
9.90605912141e-06
9.68099319501e-06
9.82759134844e-06
9.83442403405e-06
9.93570794882e-06
9.98552990879e-06
1.00167159936e-05
1.00063917238e-05
9.95349790399e-06
9.84773434688e-06
9.70455446933e-06
9.51814718626e-06
9.35444846046e-06
9.21012468547e-06
9.1753984615e-06
1.00753887333e-05
9.8914712404e-06
1.00785408878e-05
1.01486508751e-05
1.03013646133e-05
1.04027278564e-05
1.04802879769e-05
1.05137673278e-05
1.05056796385e-05
1.04547631596e-05
1.0380535345e-05
1.02861849671e-05
1.0221798617e-05
1.01719014427e-05
1.01980301596e-05
1.10091776851e-05
1.08579790998e-05
1.10331123531e-05
1.11060077568e-05
1.12434782248e-05
1.13415113152e-05
1.14245346348e-05
1.14789333409e-05
1.15094597448e-05
1.15188403076e-05
1.15227339648e-05
1.15218759692e-05
1.15460762754e-05
1.15721052283e-05
1.1634012696e-05
1.31335119012e-05
1.29995668646e-05
1.30906216655e-05
1.30865146949e-05
1.31256180659e-05
1.3145618168e-05
1.31704208836e-05
1.31946365032e-05
1.32227371535e-05
1.32561889535e-05
1.33016486799e-05
1.33544537244e-05
1.34269371545e-05
1.34984835331e-05
1.35711602684e-05
1.68370259454e-05
1.66837076394e-05
1.66199497429e-05
1.64540998822e-05
1.63072542453e-05
1.61598527224e-05
1.60396225452e-05
1.59502509401e-05
1.58961989694e-05
1.58765917883e-05
1.58906363689e-05
1.59287285226e-05
1.59924182912e-05
1.60644163232e-05
1.61240303636e-05
2.18971277673e-05
2.16927748831e-05
2.14079708765e-05
2.10118716128e-05
2.0611648513e-05
2.02250118876e-05
1.9887558098e-05
1.96118044939e-05
1.94033889456e-05
1.92600505177e-05
1.91761258752e-05
1.91397220007e-05
1.91444492507e-05
1.91773193093e-05
1.92040632269e-05
3.09076651891e-05
3.04779056584e-05
2.97846256204e-05
2.89498881843e-05
2.80768257311e-05
2.72168039298e-05
2.64257885463e-05
2.57308006578e-05
2.51457126695e-05
2.46721801225e-05
2.43052459135e-05
2.40343897255e-05
2.38482705977e-05
2.37383856473e-05
2.36640024994e-05
6.01003066144e-06
5.91833205566e-06
6.88553640499e-06
7.97331277766e-06
9.07306286749e-06
1.01412693526e-05
1.10362646678e-05
1.16836516785e-05
1.19929785751e-05
1.18596942582e-05
1.12311110555e-05
1.00425125071e-05
8.36977281197e-06
6.66573002711e-06
4.94695786138e-06
6.05197354083e-06
5.72547278087e-06
6.16020119346e-06
6.67490154599e-06
7.2513188138e-06
7.85177112935e-06
8.37314798343e-06
8.75138715922e-06
8.91701311289e-06
8.81662399399e-06
8.45902207668e-06
7.89102484529e-06
7.23688825007e-06
6.77165385704e-06
6.39885780839e-06
6.31094738124e-06
5.9796016496e-06
6.13905258102e-06
6.36219134162e-06
6.63135454547e-06
6.93215187364e-06
7.21286728297e-06
7.43997748908e-06
7.58277355328e-06
7.62860992809e-06
7.60621752218e-06
7.55256572115e-06
7.51120343694e-06
7.54003271505e-06
7.57907159283e-06
7.08115823906e-06
6.84024515542e-06
6.87583742758e-06
6.97951792055e-06
7.11312390499e-06
7.27614148588e-06
7.45440132914e-06
7.63776626117e-06
7.81955904565e-06
7.99694144391e-06
8.17657809744e-06
8.35360600802e-06
8.51840816355e-06
8.65716477229e-06
8.79902477854e-06
8.40154899453e-06
8.24588726009e-06
8.21219167373e-06
8.24164421031e-06
8.29563754583e-06
8.37942951568e-06
8.49860257131e-06
8.65127038718e-06
8.83606536202e-06
9.04608777708e-06
9.27097868697e-06
9.49265617944e-06
9.68960077626e-06
9.84199653089e-06
9.99120035495e-06
1.01736664137e-05
1.00749890447e-05
9.98861497964e-06
9.94757363259e-06
9.93072119413e-06
9.94351322452e-06
1.00018690278e-05
1.0105894365e-05
1.02540674724e-05
1.04357715228e-05
1.06354320262e-05
1.08321313755e-05
1.10071286416e-05
1.11418871045e-05
1.12649244735e-05
1.25340044696e-05
1.24521180183e-05
1.23011822076e-05
1.2166011194e-05
1.20545284754e-05
1.19697811618e-05
1.19349519341e-05
1.19519885093e-05
1.20196197016e-05
1.21269712032e-05
1.22588044242e-05
1.23964495911e-05
1.25256430457e-05
1.26345826379e-05
1.27154114118e-05
1.52901260462e-05
1.52019178317e-05
1.49773126218e-05
1.47378873946e-05
1.45193592276e-05
1.43216252219e-05
1.41741857738e-05
1.4082029762e-05
1.4045909726e-05
1.40569077216e-05
1.41029776133e-05
1.41675267354e-05
1.42412295402e-05
1.43176787717e-05
1.43474039211e-05
1.78615903512e-05
1.77285163838e-05
1.742015601e-05
1.7063899896e-05
1.67216804421e-05
1.63911599952e-05
1.61088780758e-05
1.58843455587e-05
1.57218149274e-05
1.56159189425e-05
1.55585096212e-05
1.55358351443e-05
1.55421068949e-05
1.55760899582e-05
1.55543059737e-05
2.55472342147e-05
2.51990580355e-05
2.4553281831e-05
2.38179776411e-05
2.30607865939e-05
2.23013708989e-05
2.15941135305e-05
2.09618006961e-05
2.04185157402e-05
1.99665869573e-05
1.96039452937e-05
1.9322524881e-05
1.91167343999e-05
1.89973525801e-05
1.88483403291e-05
3.51973191022e-06
3.41716314182e-06
5.31036686147e-06
7.07625070644e-06
8.62490072453e-06
1.0044616487e-05
1.11810643247e-05
1.19829200062e-05
1.23604416158e-05
1.22076107098e-05
1.14595451673e-05
1.00386265567e-05
7.96095964064e-06
5.67668665968e-06
2.98555542453e-06
3.75914309666e-06
3.21630782763e-06
4.24121487632e-06
5.31664690604e-06
6.30750536272e-06
7.26546099298e-06
8.04599805277e-06
8.60070995197e-06
8.85920423392e-06
8.77467252713e-06
8.36302850478e-06
7.69520264424e-06
6.91265246772e-06
6.35404614724e-06
5.92993152967e-06
4.58792789494e-06
4.08228608677e-06
4.43769187435e-06
4.94574474181e-06
5.44486999954e-06
5.99189545639e-06
6.47772004929e-06
6.87138465717e-06
7.13615222956e-06
7.27027690321e-06
7.31494800247e-06
7.33318176816e-06
7.36248880711e-06
7.46767125285e-06
7.56046688013e-06
6.11587566954e-06
5.8013894627e-06
5.8453256044e-06
6.0310396828e-06
6.21842232686e-06
6.4782020505e-06
6.76334453833e-06
7.06650125603e-06
7.37360030079e-06
7.68322646112e-06
7.99712490814e-06
8.31122647867e-06
8.59323888716e-06
8.82406226208e-06
9.02221383764e-06
8.0983660602e-06
7.91917000183e-06
7.83223110432e-06
7.85696235088e-06
7.88478993083e-06
7.97979206676e-06
8.1344879524e-06
8.35284178394e-06
8.62763484454e-06
8.9469040241e-06
9.28668570061e-06
9.62164148162e-06
9.90919638524e-06
1.01269622074e-05
1.03163281121e-05
1.03113876245e-05
1.02113454667e-05
1.00520753422e-05
9.97342919676e-06
9.90363048308e-06
9.89051200047e-06
9.94537160991e-06
1.0073507096e-05
1.02693375399e-05
1.05162781281e-05
1.07865115252e-05
1.10520750425e-05
1.12795231875e-05
1.14500421332e-05
1.15950780859e-05
1.28817161116e-05
1.2807169844e-05
1.25805933338e-05
1.23975192598e-05
1.2229027961e-05
1.21039242453e-05
1.20445435221e-05
1.20562223698e-05
1.21353922166e-05
1.22668580167e-05
1.24273336552e-05
1.25937123366e-05
1.27427923204e-05
1.28642482393e-05
1.29504832606e-05
1.54630812262e-05
1.53925407895e-05
1.5105354301e-05
1.48295967201e-05
1.45725682743e-05
1.43445055945e-05
1.41755034785e-05
1.40719204532e-05
1.40334491035e-05
1.40486002737e-05
1.41011510241e-05
1.41722438436e-05
1.42480765974e-05
1.43251119179e-05
1.43466369936e-05
1.72039950474e-05
1.70973409871e-05
1.67645593431e-05
1.64084698616e-05
1.60715262934e-05
1.57457185584e-05
1.54688307721e-05
1.52501281787e-05
1.5093890648e-05
1.49938321765e-05
1.49407201596e-05
1.49200058349e-05
1.49251681497e-05
1.49594723202e-05
1.49192698764e-05
2.43510085035e-05
2.40189039315e-05
2.33754431035e-05
2.26562225473e-05
2.19195968654e-05
2.11734706121e-05
2.04732383677e-05
1.98410573457e-05
1.92920020637e-05
1.88292535148e-05
1.84523066526e-05
1.81540244344e-05
1.7931370167e-05
1.78012120847e-05
1.76214871214e-05
6.18313924927e-06
6.0470832053e-06
7.04749993099e-06
8.14644342268e-06
9.26112021402e-06
1.03472802301e-05
1.12643912714e-05
1.19411987052e-05
1.22917762356e-05
1.22206398874e-05
1.16871670314e-05
1.06472375434e-05
9.20738732873e-06
7.8139105659e-06
6.45235359407e-06
6.14990493116e-06
5.79746945173e-06
6.28446873274e-06
6.83725638889e-06
7.45076798145e-06
8.08769794065e-06
8.64368194147e-06
9.05734675818e-06
9.26161423455e-06
9.20735265079e-06
8.90347511948e-06
8.39693996749e-06
7.79942644132e-06
7.37072523966e-06
7.01691630344e-06
6.4139688928e-06
6.06320031257e-06
6.28048360824e-06
6.55599652732e-06
6.87651019063e-06
7.22863036122e-06
7.55502392908e-06
7.82224199466e-06
7.99792396263e-06
8.06909697725e-06
8.05920285245e-06
8.00559430844e-06
7.94826694239e-06
7.95331065477e-06
7.9809224044e-06
7.29570715211e-06
7.04552593971e-06
7.13184204784e-06
7.28596341228e-06
7.4688032847e-06
7.68267399672e-06
7.90517014771e-06
8.12383699978e-06
8.32801406859e-06
8.51359483851e-06
8.68536019991e-06
8.84337785873e-06
8.98238648803e-06
9.09504651808e-06
9.22906077997e-06
8.80229894818e-06
8.64368890344e-06
8.64830669947e-06
8.71686456295e-06
8.80673239036e-06
8.92783571479e-06
9.07730538081e-06
9.25081660862e-06
9.44342810315e-06
9.64836073973e-06
9.85629079562e-06
1.00557489014e-05
1.02299761101e-05
1.03636255471e-05
1.05086935117e-05
1.08230761522e-05
1.07218163818e-05
1.06592641104e-05
1.0641237483e-05
1.0641481685e-05
1.06715184522e-05
1.0740325438e-05
1.0846860613e-05
1.09877875683e-05
1.11539916509e-05
1.13322441209e-05
1.15072401751e-05
1.16636812391e-05
1.17846021728e-05
1.19067448225e-05
1.34271290708e-05
1.33407009794e-05
1.32004766091e-05
1.30734500169e-05
1.2962000409e-05
1.28761192276e-05
1.28341409412e-05
1.28382986095e-05
1.28871255296e-05
1.29719748825e-05
1.30800426984e-05
1.31968725405e-05
1.33101025134e-05
1.34077775626e-05
1.34901702783e-05
1.64511297156e-05
1.63515125988e-05
1.61246690157e-05
1.58772277356e-05
1.56410620625e-05
1.54234621907e-05
1.5251416309e-05
1.51314626561e-05
1.50654332272e-05
1.50468853846e-05
1.5065915606e-05
1.5108745465e-05
1.51669063148e-05
1.52323422747e-05
1.52654160017e-05
1.93631414727e-05
1.92098885886e-05
1.88856486774e-05
1.85047302298e-05
1.81272090572e-05
1.7758415035e-05
1.74342704466e-05
1.71666520343e-05
1.6961678517e-05
1.68164536933e-05
1.67247097231e-05
1.66746365194e-05
1.6660929845e-05
1.66798596579e-05
1.66599604433e-05
2.69131350352e-05
2.65447410375e-05
2.58866805055e-05
2.51296961681e-05
2.43450759245e-05
2.35557633911e-05
2.28170145655e-05
2.21532618788e-05
2.15800308261e-05
2.1101074143e-05
2.07154370801e-05
2.04157569994e-05
2.01971048065e-05
2.00683434586e-05
1.9919442182e-05
1.08175873132e-05
1.05637766464e-05
1.07686717142e-05
1.0842559666e-05
1.10789206924e-05
1.1348699584e-05
1.16437584844e-05
1.19102950459e-05
1.21030306387e-05
1.2157749831e-05
1.20759610083e-05
1.18177752394e-05
1.15081048616e-05
1.12607344631e-05
1.083936593e-05
1.05017929118e-05
1.01803972248e-05
1.02857202352e-05
1.02152219421e-05
1.02693126981e-05
1.03233474258e-05
1.0400223601e-05
1.04674381537e-05
1.04994825546e-05
1.04557488975e-05
1.03291208097e-05
1.00929722222e-05
9.800298633e-06
9.55301508013e-06
9.28665029143e-06
1.01165332003e-05
9.83925375525e-06
9.97916379858e-06
9.96955666389e-06
1.00637393144e-05
1.01288221835e-05
1.01904942621e-05
1.02224095107e-05
1.02113787784e-05
1.01317618897e-05
9.98368338962e-06
9.75271306969e-06
9.50191190004e-06
9.27784033359e-06
9.14689715817e-06
1.00406185268e-05
9.82937440474e-06
1.00310811197e-05
1.01227781185e-05
1.03046917332e-05
1.0444759559e-05
1.05615385727e-05
1.062890313e-05
1.06387036647e-05
1.0577824957e-05
1.04560909548e-05
1.02746716414e-05
1.00961332098e-05
9.9320878517e-06
9.89971488503e-06
1.05834696379e-05
1.04264520611e-05
1.06473949182e-05
1.07854636538e-05
1.09948621173e-05
1.11621892957e-05
1.13003785545e-05
1.13868249563e-05
1.14178109118e-05
1.1390608551e-05
1.13219039632e-05
1.1223680108e-05
1.11444706932e-05
1.10822415879e-05
1.11135106609e-05
1.20663896697e-05
1.19439999241e-05
1.21212943948e-05
1.22276557774e-05
1.2382535482e-05
1.2505940924e-05
1.26097591146e-05
1.26795838885e-05
1.27160597692e-05
1.27221346007e-05
1.27131941704e-05
1.26978520203e-05
1.27048646351e-05
1.27195836154e-05
1.27870122459e-05
1.47074930341e-05
1.45939093528e-05
1.46638207087e-05
1.46605408894e-05
1.46828262957e-05
1.46899654195e-05
1.46974336154e-05
1.47008358959e-05
1.47033112999e-05
1.47082066107e-05
1.47234971839e-05
1.47508237747e-05
1.48013390763e-05
1.48592242374e-05
1.49359962541e-05
1.88733170908e-05
1.87216901262e-05
1.86232059665e-05
1.84315079919e-05
1.8241914251e-05
1.80509610262e-05
1.78826896315e-05
1.77434400687e-05
1.76389723971e-05
1.75714452199e-05
1.75422755766e-05
1.75462048257e-05
1.75838220251e-05
1.76389755274e-05
1.77010809756e-05
2.42514478562e-05
2.4031353837e-05
2.37076138798e-05
2.32703703389e-05
2.28145583108e-05
2.23685378527e-05
2.19678526443e-05
2.16285040607e-05
2.1358856312e-05
2.11598726379e-05
2.10281627652e-05
2.0954432851e-05
2.09318595792e-05
2.09461946416e-05
2.09729190659e-05
3.32640626706e-05
3.28039714056e-05
3.20830036794e-05
3.12088284093e-05
3.02876837233e-05
2.93752271016e-05
2.85296624609e-05
2.77809335193e-05
2.71455477587e-05
2.66275053465e-05
2.62235884758e-05
2.59241693806e-05
2.57185202183e-05
2.55958746085e-05
2.55201294423e-05
1.62998826684e-05
1.54457532219e-05
1.54901008304e-05
1.47429259443e-05
1.41953209002e-05
1.35706556841e-05
1.30447479668e-05
1.2654106662e-05
1.24745157745e-05
1.25305704234e-05
1.28704458686e-05
1.33844749536e-05
1.40944995297e-05
1.46491121168e-05
1.4830408708e-05
1.55726691527e-05
1.47918018048e-05
1.50254999554e-05
1.45734194868e-05
1.43178117489e-05
1.39811186994e-05
1.36902866186e-05
1.34462756821e-05
1.32745634383e-05
1.31514718732e-05
1.30568130696e-05
1.28836523711e-05
1.26817227139e-05
1.23543222611e-05
1.21329212115e-05
1.45942516725e-05
1.39316783709e-05
1.43586069051e-05
1.41994371092e-05
1.42407511796e-05
1.41876949753e-05
1.41220624446e-05
1.40108172392e-05
1.38461887593e-05
1.35856097583e-05
1.32158776285e-05
1.26763933493e-05
1.21191666408e-05
1.14874575316e-05
1.1205357078e-05
1.37278307252e-05
1.31612552539e-05
1.37448162867e-05
1.38194993613e-05
1.4081518402e-05
1.42331280551e-05
1.43233556542e-05
1.43034950995e-05
1.41563444994e-05
1.38521689041e-05
1.34066002731e-05
1.28134148923e-05
1.22556479991e-05
1.1679176659e-05
1.14966017777e-05
1.33905774728e-05
1.29117660673e-05
1.35683782753e-05
1.37848365075e-05
1.41520124567e-05
1.44015486678e-05
1.4563110355e-05
1.45916619568e-05
1.44778005731e-05
1.42157056369e-05
1.38471123779e-05
1.33982617701e-05
1.30290013247e-05
1.26761162275e-05
1.26207371025e-05
1.42944560827e-05
1.39143931786e-05
1.45113949306e-05
1.47526320331e-05
1.50926875149e-05
1.53312824031e-05
1.54881853866e-05
1.55344290997e-05
1.54723353573e-05
1.53138271315e-05
1.51045829188e-05
1.48715072758e-05
1.47194397978e-05
1.45764338816e-05
1.4623878834e-05
1.69112319529e-05
1.66279408184e-05
1.70271815967e-05
1.71584279697e-05
1.73358147891e-05
1.74489270017e-05
1.75149148393e-05
1.75229131622e-05
1.74810030935e-05
1.74041716601e-05
1.7323370095e-05
1.72524409257e-05
1.72438237639e-05
1.72376941881e-05
1.73396272924e-05
2.2679576339e-05
2.24110738341e-05
2.24715614205e-05
2.23199590936e-05
2.21665064406e-05
2.19912246667e-05
2.18187325049e-05
2.16553728376e-05
2.15108863281e-05
2.13950887157e-05
2.13206127445e-05
2.12873309402e-05
2.13113327675e-05
2.13475197105e-05
2.14570435828e-05
2.95263150943e-05
2.92466907796e-05
2.89317364207e-05
2.84383806889e-05
2.79097747289e-05
2.73929579647e-05
2.69254762325e-05
2.65270919417e-05
2.6208287701e-05
2.5972818566e-05
2.58192982608e-05
2.57387139124e-05
2.57232136559e-05
2.57417051693e-05
2.58264304132e-05
4.3304622744e-05
4.27379404376e-05
4.18451291738e-05
4.07430297875e-05
3.95711617862e-05
3.84266903048e-05
3.73775010021e-05
3.64621278709e-05
3.56994353391e-05
3.50933626472e-05
3.46371443426e-05
3.4317609989e-05
3.41132408661e-05
3.39908443581e-05
3.39939134728e-05
)
;

boundaryField
{
    outside
    {
        type            calculated;
        value           nonuniform List<scalar> 
105
(
4.84838472988e-05
3.14029730864e-05
2.18754623761e-05
1.91529168079e-05
2.36885791111e-05
3.42956326082e-05
5.21643436626e-05
4.77467636243e-05
3.09073206853e-05
2.15649320615e-05
1.88988220232e-05
2.33519098368e-05
3.37686786523e-05
5.14031723869e-05
4.65747438689e-05
3.01075096269e-05
2.09459010965e-05
1.8327844358e-05
2.27132883415e-05
3.29364966591e-05
5.01983101023e-05
4.51592618809e-05
2.91571590333e-05
2.02639179167e-05
1.77230439987e-05
2.19994685878e-05
3.1940702599e-05
4.87395906119e-05
4.36678031943e-05
2.81618735257e-05
1.95663128536e-05
1.71130869003e-05
2.12628032477e-05
3.08915246641e-05
4.7197251749e-05
4.22120321627e-05
2.7180863144e-05
1.88685730308e-05
1.64938725751e-05
2.05221661091e-05
2.985128608e-05
4.56868451108e-05
4.08761690958e-05
2.6273888403e-05
1.82211207065e-05
1.59149716916e-05
1.98294954334e-05
2.88829066158e-05
4.42962128086e-05
3.97060352451e-05
2.54706375118e-05
1.76431732039e-05
1.53926315418e-05
1.92062150928e-05
2.80192033341e-05
4.30744254278e-05
3.87235617997e-05
2.47867098684e-05
1.71466765107e-05
1.4938719062e-05
1.86662564015e-05
2.72786655824e-05
4.20462286246e-05
3.79320003253e-05
2.42249536228e-05
1.67329676273e-05
1.45548283433e-05
1.82127964739e-05
2.66665085959e-05
4.12169238421e-05
3.73219989491e-05
2.37808773067e-05
1.63996186165e-05
1.42402060078e-05
1.78449045824e-05
2.61800660746e-05
4.05784395734e-05
3.68778383864e-05
2.34449092978e-05
1.61394957984e-05
1.39887457005e-05
1.75563459312e-05
2.58104869737e-05
4.01151286924e-05
3.6573714937e-05
2.32044489148e-05
1.59459115833e-05
1.37973030345e-05
1.73416017206e-05
2.55463367863e-05
3.9800926958e-05
3.63657934731e-05
2.30451419267e-05
1.58333856228e-05
1.36910614406e-05
1.72137875295e-05
2.53719979892e-05
3.95903387146e-05
3.63220718967e-05
2.29457336818e-05
1.56694844862e-05
1.34913239214e-05
1.70434417667e-05
2.52634007021e-05
3.95473825103e-05
)
;
    }
    symmx
    {
        type            calculated;
        value           nonuniform List<scalar> 
70
(
1.74371002122e-05
1.6929199582e-05
1.60287086934e-05
1.50430307349e-05
1.42815217733e-05
1.43617277127e-05
1.60186671975e-05
2.08745671308e-05
2.73259887764e-05
4.03882060757e-05
1.07710103505e-05
1.06617796977e-05
1.03366964967e-05
1.01199124248e-05
1.03000014395e-05
1.12186746973e-05
1.32976804765e-05
1.69394759152e-05
2.19236837293e-05
3.08363918745e-05
5.33786146208e-06
5.52405900148e-06
5.87732416417e-06
6.73048118038e-06
8.12472412299e-06
9.95833716891e-06
1.23701078394e-05
1.51683603396e-05
1.77743245783e-05
2.54621816019e-05
1.87662142399e-06
2.52923656072e-06
3.7399767959e-06
5.53557025462e-06
7.67857358171e-06
9.99271831887e-06
1.26389619965e-05
1.52813403726e-05
1.70797272473e-05
2.42647467844e-05
5.5235633124e-06
5.6162917088e-06
5.96963526528e-06
6.93678945275e-06
8.51990004518e-06
1.06033265986e-05
1.32580818953e-05
1.63237267224e-05
1.92704660251e-05
2.68252604449e-05
1.08097600001e-05
1.06057983521e-05
1.02696909204e-05
1.02171499062e-05
1.07591406369e-05
1.22188651744e-05
1.48181670576e-05
1.89348648409e-05
2.42531444586e-05
3.3185701156e-05
1.73962784132e-05
1.67638277614e-05
1.58189985513e-05
1.49639384671e-05
1.45823648917e-05
1.5334900842e-05
1.76985059549e-05
2.31648426338e-05
2.97402075463e-05
4.32801490891e-05
)
;
    }
    symmy
    {
        type            calculated;
        value           nonuniform List<scalar> 
70
(
1.37237924462e-05
1.1400812982e-05
1.06836607966e-05
1.08512837518e-05
1.17152802128e-05
1.33908590525e-05
1.58507694663e-05
1.97135410908e-05
2.40599325412e-05
3.16983994768e-05
9.4843300722e-06
8.43959728137e-06
8.49242110269e-06
9.13944095016e-06
1.01612881595e-05
1.15982879301e-05
1.35380611984e-05
1.60946272126e-05
1.91799129273e-05
2.3641518416e-05
4.97174761459e-06
6.3843095835e-06
7.54848489377e-06
8.75765678587e-06
9.94571198416e-06
1.12203445503e-05
1.26752420905e-05
1.43135893627e-05
1.55293873311e-05
1.88309402474e-05
2.91393247033e-06
5.92543349063e-06
7.53720913823e-06
8.98544958185e-06
1.02745256635e-05
1.15538720349e-05
1.29135010362e-05
1.43158383265e-05
1.48970894373e-05
1.76069683366e-05
6.49869267928e-06
6.99190419784e-06
7.94600323206e-06
9.18684164816e-06
1.04640618879e-05
1.18639455155e-05
1.34521380604e-05
1.52335841134e-05
1.66364130686e-05
1.99023072728e-05
1.10116072695e-05
9.24883213866e-06
9.10494573554e-06
9.86050143231e-06
1.10759079119e-05
1.27518767232e-05
1.49042185605e-05
1.7673149138e-05
2.09497950338e-05
2.54979887278e-05
1.51532459227e-05
1.21837900361e-05
1.12934966988e-05
1.16119928013e-05
1.27360010356e-05
1.47211920099e-05
1.74110810256e-05
2.150080592e-05
2.58448216356e-05
3.39918095161e-05
)
;
    }
    inside
    {
        type            calculated;
        value           nonuniform List<scalar> 
105
(
1.64544222401e-05
1.08068659351e-05
6.02081484616e-06
3.5190068005e-06
6.22735236443e-06
1.08998749786e-05
1.65092889039e-05
1.55584880325e-05
1.0567952488e-05
5.92388669517e-06
3.41875822372e-06
6.08517456507e-06
1.06305201196e-05
1.56147576657e-05
1.55363506489e-05
1.06981343805e-05
6.88489161784e-06
5.3124408114e-06
7.07596671414e-06
1.08170408711e-05
1.56340575845e-05
1.46569967047e-05
1.06839751007e-05
7.96364264674e-06
7.07806454114e-06
8.16024467508e-06
1.08549542033e-05
1.48162584956e-05
1.39658948533e-05
1.08320833688e-05
9.05728138768e-06
8.62642123468e-06
9.26576975156e-06
1.10613776416e-05
1.42001237545e-05
1.31704372835e-05
1.10080565335e-05
1.01209986353e-05
1.00458483999e-05
1.03452004417e-05
1.1304426383e-05
1.35027022441e-05
1.24618181862e-05
1.12119397526e-05
1.10132096047e-05
1.11822915578e-05
1.12587300185e-05
1.15803849768e-05
1.29104537839e-05
1.18823890623e-05
1.13864359901e-05
1.16591570825e-05
1.1984634611e-05
1.19348476797e-05
1.18361057802e-05
1.24659774474e-05
1.15212247862e-05
1.14815093973e-05
1.19678967324e-05
1.23630047691e-05
1.22880132906e-05
1.20280653878e-05
1.22548496726e-05
1.14138818107e-05
1.14218379473e-05
1.18337996513e-05
1.22100850889e-05
1.22229740081e-05
1.20949856028e-05
1.23133654323e-05
1.16313549569e-05
1.12031980182e-05
1.12010017871e-05
1.14563728505e-05
1.16994147579e-05
1.20463330123e-05
1.27079084375e-05
1.2073835933e-05
1.07791941247e-05
9.99672990015e-06
1.00115232418e-05
1.06690338503e-05
1.18483327446e-05
1.33393171722e-05
1.27920406605e-05
1.02949267805e-05
8.28042476952e-06
7.8623475325e-06
9.23489549708e-06
1.16372695044e-05
1.42357782137e-05
1.33822383367e-05
9.89997250064e-06
6.49493233821e-06
5.41842450354e-06
7.82887210505e-06
1.14836507986e-05
1.49723497174e-05
1.36516860236e-05
9.39566340922e-06
4.60253895232e-06
2.13599381766e-06
6.4364322818e-06
1.11549894614e-05
1.53044045168e-05
)
;
    }
    top
    {
        type            calculated;
        value           nonuniform List<scalar> 
150
(
1.62902831417e-05
1.55763772287e-05
1.45799633534e-05
1.36613986868e-05
1.32332259231e-05
1.40443409054e-05
1.66029602048e-05
2.24539088163e-05
2.92787432564e-05
4.29811672388e-05
1.54470890427e-05
1.48084615203e-05
1.39277124448e-05
1.31061134096e-05
1.27724795106e-05
1.3694790376e-05
1.636089115e-05
2.22275288413e-05
2.90322153073e-05
4.24355049936e-05
1.5465635913e-05
1.50428724976e-05
1.43645084294e-05
1.37030225739e-05
1.34435708176e-05
1.43022616499e-05
1.67623567081e-05
2.22776055439e-05
2.87084065467e-05
4.15410223328e-05
1.46452184691e-05
1.45576265308e-05
1.41860087743e-05
1.37662042717e-05
1.36578960853e-05
1.4551143226e-05
1.69066212328e-05
2.21349514957e-05
2.82225086705e-05
4.04479850819e-05
1.40164245187e-05
1.42698166954e-05
1.42120427248e-05
1.40212306232e-05
1.40261227529e-05
1.48992379975e-05
1.70949048431e-05
2.19870166498e-05
2.76985219861e-05
3.92829670979e-05
1.3291857704e-05
1.38938188597e-05
1.41404761794e-05
1.41631198019e-05
1.42733373e-05
1.51422983196e-05
1.72163845851e-05
2.18168202505e-05
2.71866522173e-05
3.81466148684e-05
1.26634251069e-05
1.35644649891e-05
1.4057307653e-05
1.42432063663e-05
1.44302817444e-05
1.53001914103e-05
1.72875288895e-05
2.16479740153e-05
2.67234550944e-05
3.7105269432e-05
1.21823544335e-05
1.3287855241e-05
1.39307920667e-05
1.42125186701e-05
1.44511571166e-05
1.53433072837e-05
1.72970356519e-05
2.14865493509e-05
2.63284653479e-05
3.61972982022e-05
1.1947437064e-05
1.30968578273e-05
1.3755066185e-05
1.40539400758e-05
1.43263370658e-05
1.52740716344e-05
1.7253289993e-05
2.13424327229e-05
2.60121828254e-05
3.54413736049e-05
1.20059030549e-05
1.29735509348e-05
1.34882154838e-05
1.37371406822e-05
1.4049667514e-05
1.5104844879e-05
1.71720182771e-05
2.12258824991e-05
2.577858305e-05
3.48415490161e-05
1.24164790288e-05
1.28990916627e-05
1.31164855673e-05
1.32773329481e-05
1.36634790323e-05
1.48826341128e-05
1.70853626075e-05
2.11500198395e-05
2.56264468144e-05
3.43910421343e-05
1.30590796816e-05
1.27617588064e-05
1.25761701848e-05
1.26670628475e-05
1.31947113047e-05
1.4636206018e-05
1.70090394527e-05
2.11161075995e-05
2.55476906329e-05
3.40773346107e-05
1.39261067635e-05
1.26052187429e-05
1.20204280368e-05
1.20928668505e-05
1.28066430623e-05
1.44713206004e-05
1.69939303229e-05
2.1137217603e-05
2.55318256923e-05
3.38770906613e-05
1.45957164746e-05
1.23048345076e-05
1.13794437022e-05
1.14983574897e-05
1.24412963109e-05
1.43264816199e-05
1.69934675752e-05
2.1181744084e-05
2.55576114939e-05
3.37595957534e-05
1.48829307131e-05
1.21188916676e-05
1.10965691157e-05
1.12968946153e-05
1.23616021709e-05
1.43505412468e-05
1.70753444254e-05
2.12754866364e-05
2.56338633779e-05
3.37664185676e-05
)
;
    }
    bottom
    {
        type            calculated;
        value           nonuniform List<scalar> 
150
(
1.63390893541e-05
1.57535519067e-05
1.47961177157e-05
1.37241333068e-05
1.28561986219e-05
1.29051955395e-05
1.47130590957e-05
1.99882851911e-05
2.67743302016e-05
3.99891316693e-05
1.54733503165e-05
1.49441044309e-05
1.4080089474e-05
1.3077332543e-05
1.22722695253e-05
1.24201492904e-05
1.43657604881e-05
1.9715723543e-05
2.65233334208e-05
3.94725300462e-05
1.54658050956e-05
1.51550931765e-05
1.44904764056e-05
1.36572480686e-05
1.29617217329e-05
1.31043772693e-05
1.487170669e-05
1.98542594124e-05
2.62638736193e-05
3.86205167349e-05
1.45835929348e-05
1.4596955329e-05
1.42209768508e-05
1.36202227485e-05
1.30896105896e-05
1.33148656157e-05
1.50293884945e-05
1.97548245869e-05