/*--------------------------------*- C++ -*----------------------------------*\
| =========                 |                                                 |
| \\      /  F ield         | foam-extend: Open Source CFD                    |
|  \\    /   O peration     | Version:     4.1                                |
|   \\  /    A nd           | Web:         http://www.foam-extend.org         |
|    \\/     M anipulation  |                                                 |
\*---------------------------------------------------------------------------*/
FoamFile
{
    version     2.0;
    format      ascii;
    class       pointVectorField;
    location    "1";
    object      pointD;
}
// * * * * * * * * * * * * * * * * * * * * * * * * * * * * * * * * * * * * * //

dimensions      [0 1 0 0 0 0 0];

internalField   nonuniform List<vector> 
1408
(
(6.56104885258e-07 3.79058949297e-05 -0.000193781390069)
(5.06878167544e-06 3.73875174014e-05 -0.000191009128855)
(9.5166224191e-06 3.6114753244e-05 -0.000187102748531)
(1.38292217734e-05 3.41791055305e-05 -0.00018077475496)
(1.752489022e-05 3.16235928257e-05 -0.000172611168627)
(2.06178165469e-05 2.86197066791e-05 -0.000163152238102)
(2.30428338352e-05 2.5319579534e-05 -0.000152957300448)
(2.48116284922e-05 2.18765212529e-05 -0.000142574040897)
(2.59677784339e-05 1.84291951303e-05 -0.000132494542541)
(2.65913007861e-05 1.50919525591e-05 -0.00012313373501)
(2.67867970331e-05 1.19570992136e-05 -0.000114819130848)
(2.66774024768e-05 9.075515987e-06 -0.000107791613442)
(2.63981192792e-05 6.48486354807e-06 -0.000102213521776)
(2.60726063806e-05 4.13743687132e-06 -9.81937109128e-05)
(2.58463911947e-05 2.07285486379e-06 -9.57489573126e-05)
(2.55785204005e-05 3.45394449359e-07 -9.50499756619e-05)
(6.94771917768e-07 3.7244596518e-05 -0.000179666684568)
(5.42005085278e-06 3.67507975598e-05 -0.000176686775152)
(1.0095545179e-05 3.53875173444e-05 -0.000172888779358)
(1.4562207967e-05 3.33169401232e-05 -0.000166807279536)
(1.83293899e-05 3.06296000857e-05 -0.000159075169835)
(2.14155985945e-05 2.75066915095e-05 -0.000150197825055)
(2.37733041444e-05 2.41163981054e-05 -0.000140704713019)
(2.54316870324e-05 2.06186685329e-05 -0.000131104022449)
(2.6451342002e-05 1.71555960792e-05 -0.000121845466101)
(2.69264325905e-05 1.38442161838e-05 -0.000113302817955)
(2.69733096592e-05 1.0779000941e-05 -0.000105765134336)
(2.67245098055e-05 8.0185400431e-06 -9.94380595357e-05)
(2.63232661531e-05 5.60318724658e-06 -9.44485737202e-05)
(2.59033126167e-05 3.49825477397e-06 -9.08700172772e-05)
(2.56137904519e-05 1.70168592214e-06 -8.86822621356e-05)
(2.53783032114e-05 1.27150192762e-07 -8.80477869412e-05)
(7.01520250853e-07 3.65617220642e-05 -0.000164222495391)
(5.6013417439e-06 3.61292952938e-05 -0.00016101117751)
(1.03491606675e-05 3.46889044122e-05 -0.000157350691068)
(1.483848947e-05 3.25099904429e-05 -0.000151581391331)
(1.85700542613e-05 2.97281743746e-05 -0.000144355251904)
(2.15778353903e-05 2.65342813774e-05 -0.000136143014093)
(2.38291351969e-05 2.31114553513e-05 -0.000127437389397)
(2.53690446094e-05 1.96251615419e-05 -0.000118701524281)
(2.62737244301e-05 1.62192085227e-05 -0.000110337205825)
(2.66519387971e-05 1.30088135061e-05 -0.000102671482069)
(2.66333541511e-05 1.0081157722e-05 -9.59498557292e-05)
(2.63600984184e-05 7.48280772643e-06 -9.0339029568e-05)
(2.5975727638e-05 5.23213514532e-06 -8.59315644791e-05)
(2.56024244339e-05 3.27574330022e-06 -8.27722585581e-05)
(2.53565713328e-05 1.60085242273e-06 -8.08204302159e-05)
(2.52228277281e-05 1.59359418887e-07 -8.02517633898e-05)
(7.04658661304e-07 3.5903985495e-05 -0.000147303910361)
(5.66444824883e-06 3.55075689812e-05 -0.000143877489579)
(1.03789043444e-05 3.40002662553e-05 -0.000140414643201)
(1.48011225808e-05 3.17365006685e-05 -0.000135050427857)
(1.8428238204e-05 2.88902451573e-05 -0.000128433053965)
(2.13121802455e-05 2.56631269341e-05 -0.000120992637948)
(2.34362923798e-05 2.22502852393e-05 -0.000113175283426)
(2.48613124962e-05 1.88191072492e-05 -0.000105391895315)
(2.56774772874e-05 1.55099683158e-05 -9.79904531418e-05)
(2.60047005218e-05 1.24289705561e-05 -9.1246788667e-05)
(2.59790256866e-05 9.64803330245e-06 -8.53605894892e-05)
(2.57412193523e-05 7.19412915691e-06 -8.04606940579e-05)
(2.54221515868e-05 5.0649359906e-06 -7.66115713664e-05)
(2.51229532165e-05 3.19347218014e-06 -7.38413363162e-05)
(2.49314531183e-05 1.57370247004e-06 -7.21010536476e-05)
(2.48390174071e-05 1.8169144617e-07 -7.15913384092e-05)
(7.04194252293e-07 3.5125372513e-05 -0.000128718019634)
(5.62562391306e-06 3.47563642252e-05 -0.000125110924343)
(1.02116545104e-05 3.32006188301e-05 -0.000121924150538)
(1.44887603371e-05 3.0882730877e-05 -0.000117076324099)
(1.79540643062e-05 2.80101996692e-05 -0.000111188326932)
(2.06770814802e-05 2.47935594844e-05 -0.000104640013847)
(2.26580443681e-05 2.14345458888e-05 -9.78204460354e-05)
(2.39715390415e-05 1.80972289003e-05 -9.10814301757e-05)
(2.47180829651e-05 1.49127017619e-05 -8.47129139369e-05)
(2.50220472346e-05 1.19727070286e-05 -7.89381138151e-05)
(2.50167133861e-05 9.33130959818e-06 -7.39126753025e-05)
(2.48321691168e-05 6.99829698033e-06 -6.97322403838e-05)
(2.45811074811e-05 4.95888749277e-06 -6.64403556704e-05)
(2.43454647506e-05 3.14340623945e-06 -6.40555278321e-05)
(2.4193273213e-05 1.55694991121e-06 -6.25270974602e-05)
(2.41121805469e-05 1.94420212536e-07 -6.2078227612e-05)
(6.96776723491e-07 3.39490211676e-05 -0.00010838452602)
(5.47753061334e-06 3.36204561327e-05 -0.000104660972843)
(9.83950330663e-06 3.20429981195e-05 -0.000101847482127)
(1.38920227229e-05 2.97123935477e-05 -9.76451020326e-05)
(1.71383408061e-05 2.68640756431e-05 -9.26212400458e-05)
(1.96621452606e-05 2.37125697619e-05 -8.70941823098e-05)
(2.14797681896e-05 2.04594008748e-05 -8.13861891562e-05)
(2.26760289164e-05 1.72600937854e-05 -7.57844558824e-05)
(2.33565078043e-05 1.42322551848e-05 -7.05190131058e-05)
(2.36431840168e-05 1.14515557555e-05 -6.5761918138e-05)
(2.36596886465e-05 8.95617583231e-06 -6.16289612021e-05)
(2.35207353303e-05 6.74445532859e-06 -5.81883453217e-05)
(2.33208448485e-05 4.79687280146e-06 -5.54685553745e-05)
(2.31268397853e-05 3.04765027335e-06 -5.34826408116e-05)
(2.29955669696e-05 1.51227563932e-06 -5.21812482228e-05)
(2.29080109539e-05 1.97849265504e-07 -5.18029467773e-05)
(6.77231791948e-07 3.19399558575e-05 -8.64181615305e-05)
(5.17954272847e-06 3.16827704304e-05 -8.26917440038e-05)
(9.19758775376e-06 3.01318317262e-05 -8.03609983293e-05)
(1.29237827202e-05 2.7858414895e-05 -7.69401673142e-05)
(1.58786151028e-05 2.51166187583e-05 -7.29150350551e-05)
(1.81529337979e-05 2.2116137336e-05 -6.85322310401e-05)
(1.97759639044e-05 1.9049719508e-05 -6.40401276782e-05)
(2.08370131835e-05 1.60592658224e-05 -5.96582859814e-05)
(2.14404375753e-05 1.32463994949e-05 -5.55575962672e-05)
(2.16997368125e-05 1.06715617516e-05 -5.18625558222e-05)
(2.17245887142e-05 8.36080165273e-06 -4.86543279915e-05)
(2.16131007573e-05 6.30673087407e-06 -4.59790003156e-05)
(2.14437175323e-05 4.48983348065e-06 -4.38542594356e-05)
(2.12721053326e-05 2.85179639914e-06 -4.22896569031e-05)
(2.11479603658e-05 1.41495173412e-06 -4.12394322317e-05)
(2.1044864097e-05 1.92524566872e-07 -4.09467446211e-05)
(6.36413109206e-07 2.8523649937e-05 -6.3317498432e-05)
(4.66564895867e-06 2.84301355531e-05 -5.97715634296e-05)
(8.18229290921e-06 2.69814418383e-05 -5.80310692295e-05)
(1.14436642383e-05 2.48738566134e-05 -5.55134721985e-05)
(1.40075654288e-05 2.23641996468e-05 -5.25956984934e-05)
(1.59614881143e-05 1.96448687573e-05 -4.94473383586e-05)
(1.73424254047e-05 1.68894216472e-05 -4.62406512906e-05)
(1.82369107619e-05 1.42208723749e-05 -4.31280694187e-05)
(1.87412818675e-05 1.17231439564e-05 -4.02249182994e-05)
(1.89552608658e-05 9.44294847633e-06 -3.76133406799e-05)
(1.89717098947e-05 7.39761301985e-06 -3.53454251128e-05)
(1.88717051205e-05 5.5779423119e-06 -3.34498302888e-05)
(1.87190279315e-05 3.96657077833e-06 -3.19366142642e-05)
(1.85597288612e-05 2.51460158101e-06 -3.08128184564e-05)
(1.84370905597e-05 1.2466542152e-06 -3.00388651262e-05)
(1.83118553997e-05 1.78001067017e-07 -2.98479522353e-05)
(5.57759893656e-07 2.26221977634e-05 -4.01682033233e-05)
(3.76825288641e-06 2.27819623277e-05 -3.71029702517e-05)
(6.52535461727e-06 2.15926322844e-05 -3.60274735679e-05)
(9.09087673118e-06 1.98611742089e-05 -3.44801052273e-05)
(1.10973870946e-05 1.78191155864e-05 -3.27073852909e-05)
(1.26142815793e-05 1.56216351819e-05 -3.08056555938e-05)
(1.36775613142e-05 1.34079584398e-05 -2.88759606894e-05)
(1.43600924433e-05 1.12743843265e-05 -2.70088405491e-05)
(1.47404479528e-05 9.28424191006e-06 -2.52708334882e-05)
(1.48971664501e-05 7.47120593345e-06 -2.37084823939e-05)
(1.49015580392e-05 5.84635392403e-06 -2.23506169047e-05)
(1.48150414095e-05 4.40163597985e-06 -2.12126940471e-05)
(1.46854277638e-05 3.12336754609e-06 -2.0299693515e-05)
(1.45480232841e-05 1.97505226337e-06 -1.9616537859e-05)
(1.44370162198e-05 9.79047608337e-07 -1.91334273871e-05)
(1.43025172069e-05 1.51642932026e-07 -1.90536457149e-05)
(4.56591234013e-07 1.3794846553e-05 -1.98182085769e-05)
(2.4351459493e-06 1.45965474792e-05 -1.77029686743e-05)
(4.1704134772e-06 1.38307419598e-05 -1.72247665956e-05)
(5.79710427181e-06 1.27083934119e-05 -1.65338077255e-05)
(7.07070887884e-06 1.13895093187e-05 -1.57418560447e-05)
(8.02830526148e-06 9.97476289575e-06 -1.48914190978e-05)
(8.69664996838e-06 8.55343188187e-06 -1.40286774043e-05)
(9.12424807058e-06 7.1870417086e-06 -1.31951770295e-05)
(9.36230192187e-06 5.91485723972e-06 -1.24204528315e-05)
(9.46069880331e-06 4.75713127026e-06 -1.17247428015e-05)
(9.46386636969e-06 3.71990102868e-06 -1.11202374773e-05)
(9.40957666495e-06 2.79799515458e-06 -1.06132493753e-05)
(9.32694450954e-06 1.98246028865e-06 -1.0205578384e-05)
(9.23758026741e-06 1.2524369947e-06 -9.89954727753e-06)
(9.16251205085e-06 6.25271393272e-07 -9.67909446999e-06)
(9.01793959216e-06 1.24521785723e-07 -9.68396257625e-06)
(-4.97328827914e-07 6.76543945074e-07 -1.21363674323e-06)
(3.33615598116e-07 1.89874644523e-06 4.98933659805e-07)
(5.62399029641e-07 1.93592668761e-06 3.12407048335e-07)
(8.26199655946e-07 1.89091896243e-06 1.5875564444e-07)
(1.06341679808e-06 1.78930475144e-06 3.27775958548e-08)
(1.2669800191e-06 1.64765371975e-06 -7.0151713456e-08)
(1.43636928435e-06 1.48055235545e-06 -1.55246587002e-07)
(1.57376985453e-06 1.30051128671e-06 -2.2594761492e-07)
(1.68307549939e-06 1.11631496271e-06 -2.85285603299e-07)
(1.76868563576e-06 9.33983113338e-07 -3.35609337355e-07)
(1.83488591114e-06 7.57269191432e-07 -3.78744171586e-07)
(1.88551502021e-06 5.88275740513e-07 -4.1612143844e-07)
(1.92376646978e-06 4.28194507345e-07 -4.48677665753e-07)
(1.95295627326e-06 2.76381486674e-07 -4.7727625003e-07)
(1.97283751729e-06 1.51250925436e-07 -5.02367436529e-07)
(1.89408542992e-06 -3.60593998332e-08 -6.55461898695e-07)
(-3.11862637857e-08 2.66877940544e-05 -0.000194052371448)
(3.35161165174e-06 2.63244158277e-05 -0.000191476462548)
(6.4832057717e-06 2.54516039027e-05 -0.000187564672013)
(9.41870978481e-06 2.41243208279e-05 -0.000181221164582)
(1.19384765963e-05 2.23718730291e-05 -0.000173035200759)
(1.40513258273e-05 2.03128430284e-05 -0.000163554158186)
(1.57116442228e-05 1.80518533614e-05 -0.000153336014068)
(1.69322219961e-05 1.56934866829e-05 -0.000142932061796)
(1.77465811174e-05 1.33307807572e-05 -0.00013283678646)
(1.82141660093e-05 1.10365179924e-05 -0.000123467424902)
(1.8409084276e-05 8.86534837927e-06 -0.000115153466382)
(1.84141866844e-05 6.83931943546e-06 -0.000108134725644)
(1.83134457054e-05 4.97223357703e-06 -0.000102571547531)
(1.81752065509e-05 3.22841131381e-06 -9.85688330329e-05)
(1.80805383124e-05 1.62232776462e-06 -9.61321765654e-05)
(1.78863788286e-05 2.03286070628e-07 -9.54453440872e-05)
(7.63118264929e-10 2.61709345414e-05 -0.000179937170487)
(3.64692953954e-06 2.58214881673e-05 -0.000177159101593)
(6.97656736421e-06 2.48707759062e-05 -0.000173350316712)
(1.00499181342e-05 2.34329559645e-05 -0.00016725189372)
(1.26402923257e-05 2.15683310521e-05 -0.000159495295745)
(1.47584966191e-05 1.9405582609e-05 -0.000150593923541)
(1.63728415734e-05 1.70619611649e-05 -0.000141076240085)
(1.75095637819e-05 1.46476231086e-05 -0.000131454201907)
(1.82152122423e-05 1.22586068789e-05 -0.000122179843353)
(1.85595395857e-05 9.97062770269e-06 -0.000113629127382)
(1.86248801556e-05 7.84185624596e-06 -0.000106092663188)
(1.85007205013e-05 5.90418835108e-06 -9.97749560735e-05)
(1.82788174513e-05 4.1786680308e-06 -9.48010165241e-05)
(1.80396269868e-05 2.64448455634e-06 -9.12402172517e-05)
(1.78746377209e-05 1.2798231037e-06 -8.90625920649e-05)
(1.76997818951e-05 2.6019681271e-09 -8.84380678361e-05)
(2.41338478811e-09 2.56353251097e-05 -0.000164477803442)
(3.80560873214e-06 2.53347243309e-05 -0.000161469131686)
(7.2127401301e-06 2.43211795796e-05 -0.000157795611374)
(1.03258575064e-05 2.27990785728e-05 -0.000152009108872)
(1.29110599029e-05 2.08557392181e-05 -0.000144757075471)
(1.49885277844e-05 1.86286260166e-05 -0.000136519337731)
(1.65366203643e-05 1.62458401508e-05 -0.000127787595371)
(1.75918831505e-05 1.38220840248e-05 -0.000119028642097)
(1.82108843767e-05 1.14556282754e-05 -0.000110646163588)
(1.84724629743e-05 9.22291082576e-06 -0.000102968717885)
(1.84675512557e-05 7.18044404114e-06 -9.62424742597e-05)
(1.82929432289e-05 5.35690802707e-06 -9.06325033776e-05)
(1.80442686162e-05 3.76340941665e-06 -8.6229943163e-05)
(1.78007531734e-05 2.36927867721e-06 -8.30769314375e-05)
(1.7639183096e-05 1.14020408719e-06 -8.1127159336e-05)
(1.75375383123e-05 1.18613044089e-09 -8.05473782778e-05)
(3.57077939598e-09 2.51042751412e-05 -0.000147503707159)
(3.86589761043e-06 2.48356113216e-05 -0.000144287231715)
(7.26332136745e-06 2.37716717902e-05 -0.000140810310874)
(1.03424159282e-05 2.21867667204e-05 -0.000135429419272)
(1.28652683669e-05 2.01928768013e-05 -0.000128786123775)
(1.48643971711e-05 1.79355181046e-05 -0.000121320197657)
(1.63283866966e-05 1.55513268966e-05 -0.000113476442105)
(1.73035318238e-05 1.31568121059e-05 -0.000105669094032)
(1.7855025093e-05 1.08489750887e-05 -9.82475357824e-05)
(1.80685438585e-05 8.69986776739e-06 -9.14885438237e-05)
(1.80394799409e-05 6.75813068338e-06 -8.55920386429e-05)
(1.78652550022e-05 5.04173314241e-06 -8.06852539911e-05)
(1.76361250238e-05 3.54932791864e-06 -7.68321802702e-05)
(1.74214234087e-05 2.24047178843e-06 -7.40591180773e-05)
(1.72818804795e-05 1.0809293742e-06 -7.23148406676e-05)
(1.72069834708e-05 7.53582645305e-10 -7.17816986027e-05)
(4.59943549934e-09 2.44694453228e-05 -0.000128813298276)
(3.8422316227e-06 2.42264794319e-05 -0.000125428016044)
(7.15092545801e-06 2.31277587296e-05 -0.000122226979398)
(1.01310876212e-05 2.15048168531e-05 -0.000117364333341)
(1.25423771581e-05 1.94918150466e-05 -0.000111452058998)
(1.44301336792e-05 1.7240262974e-05 -0.000104879812226)
(1.57937717593e-05 1.48916518177e-05 -9.80349368408e-05)
(1.66882491256e-05 1.25605812865e-05 -9.12721370456e-05)
(1.71850678905e-05 1.0338594638e-05 -8.48823381359e-05)
(1.73726533323e-05 8.28920880358e-06 -7.90893869786e-05)
(1.73450531412e-05 6.45018851156e-06 -7.40491119719e-05)
(1.71938879277e-05 4.82853930095e-06 -6.98560227683e-05)
(1.6998976753e-05 3.41413442109e-06 -6.65540891948e-05)
(1.6818346218e-05 2.1631330383e-06 -6.41607617753e-05)
(1.67000635985e-05 1.04599167945e-06 -6.26246466295e-05)
(1.66311867137e-05 7.45171768939e-10 -6.21439821174e-05)
(5.72353584091e-09 2.35397507319e-05 -0.000108317141705)
(3.73398334036e-06 2.3333277935e-05 -0.000104829384138)
(6.87716243786e-06 2.22208398041e-05 -0.0001020028182)
(9.69531444692e-06 2.05918713866e-05 -9.77893620335e-05)
(1.19484460508e-05 1.85992430133e-05 -9.27452324952e-05)
(1.36927552891e-05 1.63966320472e-05 -8.71981371681e-05)
(1.49382632359e-05 1.41255864192e-05 -8.14681865178e-05)
(1.57463837953e-05 1.18949007525e-05 -7.58449459241e-05)
(1.6191679041e-05 9.7872713221e-06 -7.05590986669e-05)
(1.63608056663e-05 7.85570863354e-06 -6.57831919618e-05)
(1.63415339716e-05 6.12740510115e-06 -6.16333343172e-05)
(1.62156343999e-05 4.60133977536e-06 -5.81770899576e-05)
(1.60510748893e-05 3.26346386103e-06 -5.54439836467e-05)
(1.58957313526e-05 2.07134605314e-06 -5.34464429961e-05)
(1.57903732782e-05 1.00184536742e-06 -5.21352742297e-05)
(1.57151201815e-05 9.39824799091e-10 -5.1720011951e-05)
(7.37726195557e-09 2.20018581209e-05 -8.61235013458e-05)
(3.51533112613e-06 2.18575547607e-05 -8.26472055667e-05)
(6.40001594276e-06 2.07678567806e-05 -8.03063599217e-05)
(8.97909556794e-06 1.91850686842e-05 -7.68803956959e-05)
(1.10183461924e-05 1.72745538913e-05 -7.28417894658e-05)
(1.25800462127e-05 1.51856748606e-05 -6.84455961174e-05)
(1.36829450176e-05 1.30538829044e-05 -6.39376452465e-05)
(1.43910977143e-05 1.09783044385e-05 -5.95392465049e-05)
(1.47779538468e-05 9.03053842401e-06 -5.54216789464e-05)
(1.49241226566e-05 7.25304772802e-06 -5.17098771057e-05)
(1.49077015401e-05 5.66443681758e-06 -4.84854856271e-05)
(1.47989976713e-05 4.25932466352e-06 -4.5794412836e-05)
(1.46546752142e-05 3.02317934191e-06 -4.36557187024e-05)
(1.45144585858e-05 1.91791483563e-06 -4.20786627573e-05)
(1.44145936843e-05 9.26337727538e-07 -4.10180718433e-05)
(1.43265853808e-05 1.30210388241e-09 -4.06854976469e-05)
(9.69327233385e-09 1.94441505685e-05 -6.27100968489e-05)
(3.14232063616e-06 1.94355787845e-05 -5.94236849857e-05)
(5.64933195532e-06 1.84242425221e-05 -5.76795854825e-05)
(7.887611517e-06 1.69667936251e-05 -5.516625399e-05)
(9.63953307538e-06 1.52300322705e-05 -5.22460595504e-05)
(1.09659188008e-05 1.33500989052e-05 -4.90951863463e-05)
(1.18909837053e-05 1.14488017954e-05 -4.58830214028e-05)
(1.24763823301e-05 9.61163272589e-06 -4.2762989459e-05)
(1.27897556311e-05 7.89748553675e-06 -3.98505409642e-05)
(1.29018021624e-05 6.33893822901e-06 -3.72281966427e-05)
(1.28785782888e-05 4.94811828026e-06 -3.49486314867e-05)
(1.27781218768e-05 3.71803980778e-06 -3.30406747348e-05)
(1.26463207609e-05 2.63544469859e-06 -3.15158429923e-05)
(1.25155393656e-05 1.66821246252e-06 -3.03811523513e-05)
(1.24181659143e-05 8.03757573874e-07 -2.95978219765e-05)
(1.2312948407e-05 1.73391557023e-09 -2.93666843356e-05)
(1.43486716794e-08 1.51175855048e-05 -3.91718740726e-05)
(2.50250316218e-06 1.53291968024e-05 -3.63633666761e-05)
(4.44248284897e-06 1.45089386762e-05 -3.52942455247e-05)
(6.1763884026e-06 1.33264505424e-05 -3.37634466886e-05)
(7.52358102751e-06 1.1930841455e-05 -3.20031698737e-05)
(8.5326825387e-06 1.04309450459e-05 -3.01136585457e-05)
(9.22743691555e-06 8.92403361604e-06 -2.81928404987e-05)
(9.65933105588e-06 7.47629023743e-06 -2.63313629123e-05)
(9.88327336572e-06 6.1316504236e-06 -2.45955827427e-05)
(9.95465358241e-06 4.91316534396e-06 -2.30323047762e-05)
(9.92390699371e-06 3.82820729309e-06 -2.16709487497e-05)
(9.83470751947e-06 2.87043031207e-06 -2.0527387269e-05)
(9.72109588009e-06 2.02917025828e-06 -1.96079472288e-05)
(9.60728606639e-06 1.28042888027e-06 -1.89178266334e-05)
(9.51992482708e-06 6.15249142726e-07 -1.84280250554e-05)
(9.40595262151e-06 2.37481019838e-09 -1.831078437e-05)
(1.95795168978e-08 8.41748513852e-06 -1.8294939575e-05)
(1.50185095526e-06 9.08733499088e-06 -1.64541862176e-05)
(2.64348375084e-06 8.59867127114e-06 -1.59998468857e-05)
(3.66442903142e-06 7.88573503466e-06 -1.53429934759e-05)
(4.45495556043e-06 7.04503251475e-06 -1.45848370515e-05)
(5.03995780982e-06 6.14371452627e-06 -1.37680274107e-05)
(5.43588481751e-06 5.24141455665e-06 -1.29354418096e-05)
(5.67513252541e-06 4.37822196746e-06 -1.21276256846e-05)
(5.79184756387e-06 3.57999861349e-06 -1.13734921988e-05)
(5.81968329711e-06 2.85977773096e-06 -1.06932743643e-05)
(5.78873044762e-06 2.22111970359e-06 -1.00995869795e-05)
(5.72471296495e-06 1.65986215269e-06 -9.59923342579e-06)
(5.64740899852e-06 1.169086095e-06 -9.19504876235e-06)
(5.57057994998e-06 7.3538020412e-07 -8.88998320997e-06)
(5.51141607717e-06 3.52706648178e-07 -8.66839544298e-06)
(5.39788490625e-06 2.86718340318e-09 -8.64060434278e-06)
(-6.33700237875e-07 -1.85738814699e-06 -4.40609224711e-08)
(-1.28771813593e-07 -8.44656758001e-07 1.22167991089e-06)
(-2.01355557326e-07 -6.96596307673e-07 1.03294010386e-06)
(-2.48352426977e-07 -5.61082612223e-07 8.69451101963e-07)
(-2.68248884735e-07 -4.43307044982e-07 7.30821742916e-07)
(-2.70164893637e-07 -3.43694839113e-07 6.13599947121e-07)
(-2.59821908825e-07 -2.61733487474e-07 5.14776620707e-07)
(-2.42102811353e-07 -1.95697686887e-07 4.32003248563e-07)
(-2.20492760079e-07 -1.43482740043e-07 3.62909592212e-07)
(-1.97442657869e-07 -1.02877530252e-07 3.05372301398e-07)
(-1.74575245021e-07 -7.17781362167e-08 2.57496004296e-07)
(-1.528907821e-07 -4.83005785306e-08 2.17647349963e-07)
(-1.32951156832e-07 -3.08118892177e-08 1.84431269027e-07)
(-1.14962770303e-07 -1.79913667189e-08 1.56703693177e-07)
(-9.89805066524e-08 -8.69281076022e-09 1.33491148441e-07)
(-1.60513721008e-07 -1.04724115863e-07 3.15110870295e-08)
(-2.15604478382e-08 1.54149896775e-05 -0.000194106799869)
(1.91636610341e-06 1.52025921513e-05 -0.00019182133029)
(3.75971515432e-06 1.46964760724e-05 -0.000187912350956)
(5.45821646002e-06 1.39247329235e-05 -0.000181555048679)
(6.91517700024e-06 1.29091002675e-05 -0.00017335521588)
(8.13356963599e-06 1.17182952354e-05 -0.000163859879248)
(9.08797395291e-06 1.04137598566e-05 -0.000153626099071)
(9.78782596628e-06 9.05654337439e-06 -0.000143207207626)
(1.02543062169e-05 7.70036345729e-06 -0.000133099011906)
(1.05238071044e-05 6.38606167326e-06 -0.000123720090479)
(1.06405339254e-05 5.14303672755e-06 -0.000115401019165)
(1.0652522881e-05 3.9811569955e-06 -0.000108381291967)
(1.06067746328e-05 2.90490114957e-06 -0.000102819417302)
(1.05398373612e-05 1.89376153247e-06 -9.8821568969e-05)
(1.04942601489e-05 9.5379522175e-07 -9.63830644123e-05)
(1.03825136569e-05 1.17841138383e-07 -9.57081016937e-05)
(2.31251813097e-10 1.51470845229e-05 -0.000180003874607)
(2.09550017699e-06 1.4939850789e-05 -0.000177524264612)
(4.0605430641e-06 1.4385439458e-05 -0.000173711196035)
(5.84413261727e-06 1.35480508833e-05 -0.000167596499121)
(7.34582359009e-06 1.24643218126e-05 -0.000159822574149)
(8.56970878685e-06 1.12103098612e-05 -0.000150903602074)
(9.4987555313e-06 9.85493042455e-06 -0.000141368123703)
(1.01504789085e-05 8.46249461167e-06 -0.00013173066334)
(1.05539151736e-05 7.08828248121e-06 -0.000122444907341)
(1.07515463844e-05 5.77459729238e-06 -0.000113888399317)
(1.07922066072e-05 4.55277667107e-06 -0.000106352756472)
(1.07275338377e-05 3.43862819604e-06 -0.000100041867043)
(1.06088853758e-05 2.44181024028e-06 -9.50785970192e-05)
(1.04802815862e-05 1.55106064582e-06 -9.15314934133e-05)
(1.03913034505e-05 7.51362698159e-07 -8.93605683085e-05)
(1.02889304275e-05 1.62585989602e-09 -8.87490121992e-05)
(1.25224331323e-09 1.48563637571e-05 -0.000164525734115)
(2.19770352399e-06 1.46769461884e-05 -0.000161823836633)
(4.21859377415e-06 1.40828224894e-05 -0.000158144149349)
(6.0333050368e-06 1.3193846213e-05 -0.000152341116058)
(7.53819109e-06 1.20604169873e-05 -0.00014507079886)
(8.7427151027e-06 1.0764778244e-05 -0.000136814472619)
(9.63580917298e-06 9.38232258591e-06 -0.000128063994249)
(1.02411040804e-05 7.98010116085e-06 -0.000119288679199)
(1.05935618428e-05 6.61470952602e-06 -0.000110893616747)
(1.07409147078e-05 5.32899635914e-06 -0.000103208489378)
(1.07369170033e-05 4.15372996001e-06 -9.64798323876e-05)
(1.06375226857e-05 3.10363758115e-06 -9.08716243092e-05)
(1.0496932281e-05 2.1835774905e-06 -8.64731245063e-05)
(1.03595301394e-05 1.37729473592e-06 -8.33261914683e-05)
(1.02679004364e-05 6.61813332252e-07 -8.13777421768e-05)
(1.02062455649e-05 7.68979928929e-10 -8.07849234135e-05)
(1.98935081855e-09 1.45582296163e-05 -0.000147498241636)
(2.237889626e-06 1.43988754978e-05 -0.000144606371351)
(4.26029855833e-06 1.37735854132e-05 -0.000141122621778)
(6.06026501335e-06 1.28464450673e-05 -0.00013572559429)
(7.53295369596e-06 1.16811276134e-05 -0.000129064050124)
(8.69518550868e-06 1.0365018114e-05 -0.000121579559544)
(9.54163641381e-06 8.97853654022e-06 -0.000113716835089)
(1.01014321892e-05 7.58984342039e-06 -0.000105892399637)
(1.04143248332e-05 6.25495705914e-06 -9.84566714657e-05)
(1.05318214435e-05 5.01453090743e-06 -9.16871385643e-05)
(1.05102595987e-05 3.89533667897e-06 -8.57837881084e-05)
(1.04063080031e-05 2.90655301252e-06 -8.0872828937e-05)
(1.02718579959e-05 2.04624848861e-06 -7.70171233773e-05)
(1.01465332108e-05 1.29258154333e-06 -7.42433891341e-05)
(1.00645008312e-05 6.21534998811e-07 -7.24959680668e-05)
(1.00182727451e-05 4.88911448855e-10 -7.19337221951e-05)
(2.62087257622e-09 1.41926040512e-05 -0.000128714549737)
(2.22439386992e-06 1.40493181733e-05 -0.000125679915394)
(4.1979608603e-06 1.34029372171e-05 -0.000122471891676)
(5.94185427472e-06 1.24530684149e-05 -0.000117594469092)
(7.3508118501e-06 1.12756476937e-05 -0.000111665038774)
(8.4495477826e-06 9.96157090813e-06 -0.000105075278246)
(9.23872242255e-06 8.59409458492e-06 -9.82120608609e-05)
(9.75221190571e-06 7.24026244051e-06 -9.14320723921e-05)
(1.00330933078e-05 5.95309425733e-06 -8.50269563546e-05)
(1.01342191949e-05 4.76863883655e-06 -7.92210457234e-05)
(1.01111452254e-05 3.7078245843e-06 -7.41702326667e-05)
(1.00175018141e-05 2.77386766048e-06 -6.99683783775e-05)
(9.89972599042e-06 1.95986980279e-06 -6.66590531551e-05)
(9.79144659738e-06 1.2418957759e-06 -6.42606602772e-05)
(9.7200239695e-06 5.97778797798e-07 -6.27185778306e-05)
(9.67746288154e-06 4.56078681787e-10 -6.21974071604e-05)
(3.27549289853e-09 1.36488532392e-05 -0.000108081017859)
(2.15815539475e-06 1.35269756653e-05 -0.000104974839594)
(4.0341490672e-06 1.28726453342e-05 -0.000102142074758)
(5.68219611732e-06 1.19197504932e-05 -9.79167203746e-05)
(6.99770248473e-06 1.07546590195e-05 -9.28582582527e-05)
(8.0122825919e-06 9.46928504189e-06 -8.72964395388e-05)
(8.73247724525e-06 8.14686638554e-06 -8.1550481612e-05)
(9.19562596747e-06 6.85097260811e-06 -7.59115727848e-05)
(9.44624541928e-06 5.62957731765e-06 -7.06108716987e-05)
(9.53589612572e-06 4.5128695123e-06 -6.58213140757e-05)
(9.51642078455e-06 3.51594989043e-06 -6.16591990739e-05)
(9.43588687176e-06 2.63759261577e-06 -5.81918166958e-05)
(9.33415375386e-06 1.86867135287e-06 -5.54488089704e-05)
(9.23917706793e-06 1.18593998933e-06 -5.34438108615e-05)
(9.17448677948e-06 5.70416615521e-07 -5.21251039673e-05)
(9.12845982532e-06 5.54250339562e-10 -5.16618900516e-05)
(4.21272616313e-09 1.27410660315e-05 -8.57025288768e-05)
(2.02531465382e-06 1.26546826067e-05 -8.26401800205e-05)
(3.74585086595e-06 1.20145446911e-05 -8.02951318291e-05)
(5.25074354319e-06 1.10901742544e-05 -7.68618824111e-05)
(6.43830024543e-06 9.97481131286e-06 -7.28137887196e-05)
(7.34427066426e-06 8.75742900603e-06 -6.84076899731e-05)
(7.98004726734e-06 7.51759698392e-06 -6.38881219045e-05)
(8.38422124999e-06 6.31308723774e-06 -5.94776017116e-05)
(8.60036047677e-06 5.18542839958e-06 -5.53476938474e-05)
(8.67624130861e-06 4.1588164884e-06 -5.16236864521e-05)
(8.65794213739e-06 3.24355044989e-06 -4.83875504033e-05)
(8.58686021938e-06 2.4360062789e-06 -4.56852373345e-05)
(8.49635822237e-06 1.7268502068e-06 -4.35362318496e-05)
(8.40965186206e-06 1.09525961935e-06 -4.1951103313e-05)
(8.3480106744e-06 5.25533596405e-07 -4.08825757769e-05)
(8.29476064323e-06 7.56143053362e-10 -4.04975112191e-05)
(5.51749524306e-09 1.12233714569e-05 -6.20499974059e-05)
(1.80071927087e-06 1.12129328554e-05 -5.9204477648e-05)
(3.29211313454e-06 1.06205449098e-05 -5.74605141567e-05)
(4.59216595161e-06 9.77227169905e-06 -5.49470718994e-05)
(5.60701676281e-06 8.76174270372e-06 -5.20252396735e-05)
(6.37203697391e-06 7.66968034787e-06 -4.88722926228e-05)
(6.90162949704e-06 6.56749965328e-06 -4.56559752558e-05)
(7.23268000966e-06 5.50481005546e-06 -4.25304100097e-05)
(7.40510379116e-06 4.51568095964e-06 -3.9611146416e-05)
(7.46063686129e-06 3.61861597169e-06 -3.69810112315e-05)
(7.43815369691e-06 2.82025095519e-06 -3.46930837779e-05)
(7.3717874651e-06 2.11612225765e-06 -3.27764498972e-05)
(7.28855649579e-06 1.49774468969e-06 -3.12431815423e-05)
(7.2072688202e-06 9.47646480085e-07 -3.0101584304e-05)
(7.1473011961e-06 4.53003203481e-07 -2.93111230159e-05)
(7.08481538785e-06 1.00873903347e-09 -2.90257320218e-05)
(8.05745103183e-09 8.66675688145e-06 -3.82255265945e-05)
(1.42261948982e-06 8.78872723725e-06 -3.58603597213e-05)
(2.57184857753e-06 8.31017508197e-06 -3.47987009606e-05)
(3.57168933913e-06 7.6255098254e-06 -3.32778950497e-05)
(4.34563110244e-06 6.81778329855e-06 -3.15272820104e-05)
(4.92220421049e-06 5.95119672716e-06 -2.96470508828e-05)
(5.31542510926e-06 5.08259260432e-06 -2.77331805429e-05)
(5.55591400535e-06 4.25010237281e-06 -2.58763988791e-05)
(5.67591944629e-06 3.47898642571e-06 -2.41429380797e-05)
(5.70798922648e-06 2.78222711268e-06 -2.25798060136e-05)
(5.68167826953e-06 2.16375705584e-06 -2.1216812787e-05)
(5.6225719669e-06 1.61956917229e-06 -2.00701973289e-05)
(5.55063781781e-06 1.14283536418e-06 -1.91468335984e-05)
(5.47976554924e-06 7.20626022274e-07 -1.84531120793e-05)
(5.42624273146e-06 3.42901434305e-07 -1.79585831569e-05)
(5.35858248631e-06 1.34733539021e-09 -1.77902513308e-05)
(1.1503916805e-08 4.6822397814e-06 -1.70099860812e-05)
(8.20527260692e-07 5.02287078083e-06 -1.56379444921e-05)
(1.47972591619e-06 4.74902541402e-06 -1.52018495056e-05)
(2.04886254688e-06 4.35155630247e-06 -1.4567165699e-05)
(2.48749230473e-06 3.88204993653e-06 -1.38329039258e-05)
(2.80992474442e-06 3.37912619143e-06 -1.3039962276e-05)
(3.02546742572e-06 2.8767864927e-06 -1.22290930769e-05)
(3.15279921649e-06 2.3974629264e-06 -1.14401857127e-05)
(3.2114181136e-06 1.9556145194e-06 -1.07017163022e-05)
(3.22055743157e-06 1.55834779241e-06 -1.00338874735e-05)
(3.19735576302e-06 1.20744141904e-06 -9.4495277016e-06)
(3.15643919653e-06 9.00319610687e-07 -8.95574009056e-06)
(3.10904357579e-06 6.32630940669e-07 -8.55572187877e-06)
(3.0626591129e-06 3.9748736451e-07 -8.25339341987e-06)
(3.02780425152e-06 1.87839848148e-07 -8.03183190952e-06)
(2.96667849366e-06 1.68839250554e-09 -7.9584705384e-06)
(-2.95810198938e-07 -9.85022703823e-07 4.67901305576e-07)