/*--------------------------------*- C++ -*----------------------------------*\
| =========                 |                                                 |
| \\      /  F ield         | foam-extend: Open Source CFD                    |
|  \\    /   O peration     | Version:     4.1                                |
|   \\  /    A nd           | Web:         http://www.foam-extend.org         |
|    \\/     M anipulation  |                                                 |
\*---------------------------------------------------------------------------*/
FoamFile
{
    version     2.0;
    format      ascii;
    class       volScalarField;
    location    "1";
    object      sigmaHyd;
}
// * * * * * * * * * * * * * * * * * * * * * * * * * * * * * * * * * * * * * //

dimensions      [1 -1 -2 0 0 0 0];

internalField   nonuniform List<scalar> 
1050
(
-1345862.27978
-1257116.1072
-1266977.05914
-1191246.99152
-1132546.86125
-1064096.65885
-1002766.23181
-953424.260253
-925865.493575
-924985.521715
-958406.942403
-1011766.34057
-1091735.78633
-1135642.87802
-1188401.33602
-1359044.37204
-1256154.32495
-1270984.33998
-1191335.35174
-1128650.98403
-1055373.74923
-988322.334542
-931538.19716
-892508.155429
-873752.733776
-878632.232007
-895815.735806
-932572.82916
-948002.421801
-972677.94511
-1284005.38416
-1170730.03732
-1186396.59199
-1102833.04646
-1036956.1639
-960261.492038
-889599.102761
-828124.411775
-781845.172671
-751192.164722
-738256.988522
-730107.246247
-739332.010471
-721908.565406
-737501.75006
-1101674.56949
-981779.500968
-1000492.51163
-918870.525131
-855255.670951
-780299.172666
-709752.572037
-645657.036685
-592399.011666
-549624.761491
-518789.236912
-490059.916701
-478003.86926
-443934.718925
-450490.751412
-782131.058539
-658713.021661
-681871.262341
-607297.793614
-550414.780177
-481855.823968
-415591.120939
-352737.78709
-296668.876813
-246856.492273
-205322.114895
-164124.303336
-139567.052444
-94721.0174156
-95624.55176
-283709.707032
-162785.695882
-193979.232704
-134459.968118
-91678.9160905
-37144.9138722
17778.7154612
72767.1495983
125311.314832
175552.614725
221064.409952
267203.810674
298146.820354
346385.965595
349676.137174
395963.497527
507083.324033
464773.237595
501370.134747
522785.639142
555561.411211
591497.288379
630963.495559
672131.114884
714704.156438
755917.459748
799142.855953
830046.798662
876298.071088
882010.461835
1421728.02405
1504320.75274
1442518.80237
1440642.90008
1425661.45157
1421173.03531
1423023.70004
1432493.66575
1448592.50253
1470712.62704
1496141.6813
1526309.64331
1549547.91054
1586597.4854
1592263.60436
2542428.01427
2584660.20044
2504857.53838
2461089.35491
2407162.12092
2362395.97019
2326744.15439
2302366.31048
2289082.11187
2286156.95076
2291151.70003
2303863.77449
2315939.51496
2339622.29658
2344643.95415
4551349.00833
4502074.5772
4381660.82726
4262229.52921
4135028.92982
4015022.91576
3908376.63113
3819157.28669
3748679.23632
3696545.14508
3660812.70058
3639723.85513
3628276.40439
3627517.50168
3628545.44011
-766019.574857
-735062.521136
-726179.374751
-678313.331475
-640487.790572
-597292.445212
-559963.395768
-531954.01322
-520324.007591
-528872.523493
-563023.25606
-613144.465601
-681203.776042
-722970.194524
-769337.843444
-755474.928265
-719311.316098
-712000.530335
-661934.933858
-621356.077463
-574608.404089
-532508.40355
-497819.490176
-475746.725108
-468146.431003
-477037.037939
-495139.191137
-524307.174681
-542011.8365
-558426.749867
-699727.810311
-658336.638937
-651380.004031
-598868.531786
-556138.257842
-506806.077177
-461515.015268
-422296.224857
-393221.314342
-374605.694982
-367710.67639
-364406.857381
-370528.059068
-363911.698051
-369022.925862
-580900.954284
-535123.139008
-530149.243316
-478605.954905
-437064.356177
-388416.789132
-342575.908673
-300808.481403
-266071.626504
-238189.808377
-218056.378165
-199890.627801
-190840.956288
-173608.581294
-170658.956069
-377663.157026
-328628.840821
-326975.704395
-279632.807512
-242246.087169
-197433.072265
-154010.642681
-112633.65603
-75593.9265133
-42607.8888648
-15000.8951141
11752.7792614
29248.2952698
53284.9001625
61136.3441664
-62314.0669362
-13134.3330067
-17438.9450768
20576.8517717
49032.8369381
85008.4489681
121287.550665
157708.404722
192537.62313
225800.102438
255910.831014
285748.286404
307134.271307
333001.237811
344062.223843
368532.034617
414046.740944
401427.747919
425118.25492
440021.807717
462218.15229
486451.825551
512982.030942
540515.571323
568802.062571
596048.104906
623934.135332
645058.130287
669613.899931
682324.365388
1004597.75179
1035622.55191
1009005.12982
1008476.44808
1000228.82169
998638.686918
1000990.08799
1008096.65075
1019228.21574
1033964.76416
1050593.21211
1069664.09178
1085285.20243
1103894.7332
1116180.18489
1752127.06241
1760963.68332
1719190.08099
1690733.46958
1656103.52178
1627318.4008
1604315.46842
1588478.53138
1579625.80831
1577272.53963
1579890.55101
1587096.98662
1594769.23822
1604998.05002
1615900.79406
2733336.42831
2693083.50046
2631339.9825
2562126.70855
2488136.12825
2418404.35069
2356369.2413
2304443.09954
2263374.31163
2232963.76892
2212105.38012
2199613.87903
2193301.8209
2188701.68712
2198143.05292
-277165.807983
-263366.705134
-257198.289208
-232335.478316
-212561.874186
-189773.771932
-169995.196881
-154868.534032
-148066.452185
-151425.288825
-167823.75108
-192293.864172
-225625.181515
-247293.606787
-268854.5396
-268594.334604
-251981.650927
-246105.64629
-219461.297
-197473.671924
-171857.062021
-148452.510866
-128589.670445
-115053.468009
-108774.124203
-110996.424153
-117921.116279
-130554.632667
-138729.085284
-145316.101201
-237548.421116
-218385.057685
-212501.101769
-184405.544133
-161088.496134
-133841.489779
-108406.989911
-85729.8266241
-68021.5038154
-55451.342006
-48938.6201858
-44345.7005838
-44813.0145655
-40437.8529565
-41142.065108
-174728.657513
-153224.383108
-148279.994604
-120470.212755
-97534.0217213
-70380.4129339
-44390.831337
-20160.3893042
629.3329328
17988.1944918
31146.92558
43029.136525
49818.7525585
59211.2380034
62306.3070476
-68350.1871871
-45066.1465588
-41831.3764093
-16072.6098739
4808.26163965
30040.4000269
54796.2501099
78762.1004365
100585.008871
120317.20987
137000.812821
152953.304841
163743.60162
176448.89682
181950.054196
96183.6300276
119681.590308
119778.30347
140777.27214
157069.591053
177707.037029
198687.768164
219919.329924
240335.765356
259852.981305
277425.684485
294554.623856
306954.081983
320398.38726
327374.642021
320361.766442
342219.162458
337899.422197
351519.861522
360793.186771
374221.727741
388829.150954
404716.82202
421060.8659
437648.074569
453380.737692
469167.043879
481133.035171
493822.32406
501461.29208
649003.965625
663706.474047
651893.710932
652904.96574
650083.791329
651002.511949
654028.799937
659534.048182
667009.026045
676168.671169
686007.664808
696864.403662
705647.070178
715177.916986
722308.835446
1036735.28167
1040521.60945
1020254.51701
1006508.56229
989666.182435
976056.368124
965460.961744
958541.205806
955100.888884
954839.564123
956893.160435
961125.106638
965347.003666
970437.363956
976337.784713
1486049.27053
1466167.89346
1435630.26873
1401527.00216
1365013.70338
1330811.77476
1300481.67911
1275185.89845
1255225.45031
1240466.8252
1230311.2894
1224231.44735
1221022.67933
1218686.49322
1223156.03084
235902.775365
236348.76553
237409.089113
238935.889108
241178.843934
244224.941286
248271.780393
253583.030295
260438.905455
269157.459698
279722.549724
291640.453785
303583.268674
312913.602043
318356.524074
237385.86068
237969.885513
239221.320042
241092.720277
243706.806698
247154.493479
251556.575208
257041.754942
263648.851015
271337.885341
279646.455367
288132.383472
295420.859438
301551.503722
303691.149051
239311.17607
240015.076017
241383.784271
243468.23209
246305.337771
249989.361283
254580.412944
260126.498694
266547.541269
273658.570372
280938.008584
287904.994391
293532.629367
297876.720555
299412.202383
240775.484551
241615.766773
243128.372622
245442.357413
248494.298537
252356.518023
256999.298833
262365.53619
268246.847516
274354.215433
280145.773429
285310.032577
289105.215551
291948.59139
292808.849626
242461.370042
243440.534536
245065.858952
247553.53362
250739.67767
254670.32977
259239.027486
264321.667694
269661.97467
274962.422256
279789.390469
283923.91588
286894.669788
289023.836746
289702.892187
243334.186998
244463.79474
246173.017903
248792.983955
252051.272495
255964.065005
260357.120976
265060.073777
269795.849623
274292.541936
278203.292977
281416.147479
283613.1128
285152.767108
285580.632976
244540.450458
245809.287075
247555.921166
250238.639214
253481.5876
257272.285103
261389.386432
265642.983765
269771.421902
273549.159775
276727.484611
279257.657314
280934.673946
282091.383091
282317.758956
241812.590416
243211.233733
244869.504598
247483.717671
250566.71404
254077.764803
257768.299347
261443.931488
264869.73454
267869.104424
270268.601931
272077.850447
273160.349342
273900.077364
273781.712018
232007.640508
233574.655612
235027.448818
237475.721615
240292.197375
243404.706191
246553.518775
249552.404558
252205.376165
254385.528156
255990.42318
257070.888511
257548.708459
257853.708049
257299.634071
196657.887865
197775.947433
198543.443012
200320.839185
202373.586928
204588.857131
206739.178014
208665.039045
210223.183671
211334.723368
211957.338167
212167.464082
211950.041961
211728.228823
210815.258144
749036.5712
736132.151235
732095.74447
710305.222311
695041.699354
678374.699303
666717.610226
662226.472342
669109.694839
689807.63287
727136.589777
775149.49599
832010.34525
872037.059751
904323.707785
743424.238941
727979.138247
724614.314806
701723.339737
684980.540803
666280.886063
651703.699169
642825.921227
642493.134442
651534.443023
670260.695744
693990.982697
721030.738449
741295.801538
752130.017218
716209.514387
698451.692011
695314.816568
671397.446888
653770.074956
633910.704664
617679.986885
606110.999958
601242.714447
602860.277101
610833.749589
620068.808519
631682.291106
635890.07551
639651.953362
656331.371102
636504.135076
634595.72058
611422.147286
594604.429539
575194.018236
558512.88583
545037.780233
536027.500829
530886.740009
529301.426391
527723.421944
528507.935746
524773.993081
523423.567564
553409.920709
532080.485521
532113.288609
511344.278474
496858.610251
479517.031001
463935.386844
450177.179312
439079.595815
429990.720596
422999.590496
415346.383493
410529.324739
402096.877992
397991.648963
390778.724575
369538.858706
372889.357862
357157.231178
347420.827837
334658.950906
322527.32359
310777.19964
299919.018177
289489.146669
279836.594639
269226.624983
261313.951484
251011.81717
244960.891198
169820.71292
150499.659803
158371.900181
150175.315491
147467.706857
141719.740021
135467.353132
128228.209804
120300.080841
111438.843811
102238.373944
91677.4129454
83222.7744701
72953.9754558
65878.8570147
-163450.072362
-175350.550799
-160109.611652
-155789.831777
-146669.407916
-140405.174875
-135860.237489
-133797.557252
-134183.010243
-137094.221983
-141882.127258
-148886.970767
-155282.612684
-163184.954351
-170384.834286
-565252.657138
-565991.055656
-542686.82637
-523965.615741
-501388.20971
-481433.581432
-464401.920403
-451330.818838
-442421.311097
-437634.351293
-436315.525149
-438243.263702
-441362.545335
-445770.127967
-452622.095897
-1086350.96927
-1064231.67348
-1031893.92955
-994057.166344
-953228.163466
-914367.451449
-879494.458309
-850100.218629
-826782.565224
-809576.696009
-797974.817738
-791314.031845
-788387.601033
-786416.395373
-792595.112286
1237956.24649
1207897.11798
1201168.3684
1156414.96427
1123153.223
1086150.40401
1057024.45509
1039716.24134
1041766.13961
1067487.02627
1122146.00384
1195107.65023
1285778.23116
1345106.27167
1401700.83722
1230371.73153
1195371.60719
1190584.64366
1144288.90675
1108983.37813
1069195.63543
1035977.8007
1012323.04498
1003461.10374
1011089.46016
1036256.03649
1070779.73996
1113921.87685
1143271.29219
1163803.02948
1178389.59246
1138395.06242
1134198.66336
1085873.7052
1048849.85551
1006928.82878
970870.201598
942780.154132
926534.176216
922028.371476
929458.625823
939736.29704
956745.572539
958461.839906
966569.185956
1062497.32463
1018383.23763
1016457.46865
969551.509517
934136.085441
893242.693125
856726.357818
825729.864902
802779.05432
787097.255629
778495.686647
770557.86174
769023.061092
757368.167872
756179.013382
862719.867675
815623.980008
817255.866344
774906.77136
743927.224638
707020.54808
672795.827673
641656.128726
615375.507179
593063.529601
575177.107621
556736.060641
545238.793386
525473.333861
519062.878057
549493.981993
502556.151302
510344.929997
477620.361694
455760.235599
427712.162178
400352.407409
373502.923722
348343.460546
324297.147771
302251.495456
279073.568921
262323.574817
239692.829857
229678.919855
122720.125027
79732.1297313
95995.9573954
77814.2434563
69596.3857458
55233.9053436
39549.7156492
21905.417654
3068.15406247
-17177.0408577
-37551.5782124
-59879.7578574
-77167.774639
-99078.5252349
-110970.915162
-515073.183167
-543276.260052
-512994.618749
-506905.196625
-492056.177081
-482907.329802
-477230.102735
-476231.175519
-479663.159722
-487488.329871
-498377.166309
-512931.411167
-525541.212589
-542079.510781
-553947.789536
-1264548.45311
-1270345.95583
-1225121.09579
-1191320.11396
-1150484.09509
-1114779.51048
-1084657.41764
-1061887.57593
-1046704.59644
-1038916.85048
-1037245.50426
-1041279.2546
-1047051.15109
-1056022.57772
-1067239.25509
-2309255.98043
-2266359.40965
-2202219.401
-2128675.51889
-2049665.25952
-1974466.32574
-1906990.46753
-1850005.73045
-1804593.2964
-1770764.62062
-1747547.61472
-1733660.71652
-1726946.21538
-1722129.39159
-1733006.47873
1818046.89035
1730194.78797
1742259.25792
1669718.58951
1615690.05902
1553579.1203
1500629.89547
1462156.43943
1448333.24461
1464390.45179
1517567.33799
1592400.20138
1693023.50664
1752857.62061
1814556.17304
1834173.7753
1732424.33034
1749813.02083
1673965.37559
1616614.83679
1550389.2595
1492342.54268
1446717.9496
1420962.34896
1417330.66581
1438127.55749
1471055.13335
1520969.22504
1547150.22183
1575637.18873
1762749.88833
1650838.72494
1669307.36001
1589953.57109
1529829.40908
1460608.69834
1399255.71774
1348974.81689
1315528.48444
1298859.47055
1299950.30724
1304907.15468
1324495.70581
1314919.23642
1333319.28748
1583356.78097
1465085.89218
1486889.78533
1409918.71903
1352463.5321
1285305.35384
1224141.47635
1170876.7821
1129446.35524
1098865.78614
1079504.92651
1060880.70194
1056238.54269
1027628.03233
1035931.1099
1267421.50109
1145900.93913
1172402.16757
1102850.12248
1052426.2449
991840.089015
934861.24898
882350.610241
837155.921824
798128.123793
766415.355331
733603.570241
715126.201905
674605.336184
677000.438283
771624.566978
652911.112485
687685.684329
633529.354619
597454.869379
550990.193663
505170.190362
459981.430427
417379.40332
376661.187863
339548.263068
300392.649925
274413.118776
229656.256502
227611.595796
98627.0740027
-9975.16757743
36196.2516829
5316.78872896
-9124.30819638
-33702.5021899
-60637.2041476
-90677.3715872
-122525.310735
-156369.955429
-189987.534701
-226954.552599
-253352.03671
-296467.519237
-300914.839306
-924432.774741
-1004172.28914
-938244.560864
-930368.469007
-908211.631087
-895459.374653
-888433.265748
-888812.346605
-896106.452294
-910127.668099
-928595.079628
-953081.1612
-972203.634769
-1006409.07657
-1010785.95113
-2014544.51867
-2054088.78928
-1969985.82619
-1920209.30766
-1859232.79075
-1806530.53435
-1762563.2143
-1729898.63634
-1708810.89279
-1698915.65138
-1698084.84192
-1706193.32353
-1715011.17781
-1736608.2588
-1740565.41521
-4104118.1949
-4052734.74628
-3928319.59452
-3803732.90851
-3670559.38311
-3544048.57276
-3430862.75999
-3335461.11969
-3259532.07302
-3202932.55063
-3163889.0735
-3140618.68104
-3128033.49039
-3127074.10558
-3128003.73228
)
;

boundaryField
{
    outside
    {
        type            zeroGradient;
    }
    symmx
    {
        type            zeroGradient;
    }
    symmy
    {
        type            zeroGradient;
    }
    inside
    {
        type            zeroGradient;
    }
    top
    {
        type            zeroGradient;
    }
    bottom
    {
        type            zeroGradient;
    }
}


// ************************************************************************* //
