/*--------------------------------*- C++ -*----------------------------------*\
| =========                 |                                                 |
| \\      /  F ield         | foam-extend: Open Source CFD                    |
|  \\    /   O peration     | Version:     4.1                                |
|   \\  /    A nd           | Web:         http://www.foam-extend.org         |
|    \\/     M anipulation  |                                                 |
\*---------------------------------------------------------------------------*/
FoamFile
{
    version     2.0;
    format      ascii;
    class       volScalarField;
    location    "1";
    object      sigmaEq;
}
// * * * * * * * * * * * * * * * * * * * * * * * * * * * * * * * * * * * * * //

dimensions      [1 -1 -2 0 0 0 0];

internalField   nonuniform List<scalar> 
1050
(
3763989.38483
3566436.80395
3568177.98401
3382037.8798
3239427.25011
3074144.08214
2927967.8513
2809314.92115
2736560.1317
2715090.54264
2757338.48505
2836818.77541
2965098.63407
3061050.60538
3095434.78679
3624992.48073
3439707.96722
3485582.86026
3364860.07356
3287654.60021
3187638.10225
3096166.74139
3014163.35663
2949142.72697
2896556.18415
2854409.15684
2797528.79513
2743938.18849
2663582.59329
2615051.53011
3408432.47781
3245675.15774
3335528.65817
3278544.60061
3267381.46672
3231236.89367
3191847.07178
3142511.70672
3083314.01174
3005428.20553
2908343.96858
2776190.43355
2648900.32875
2502797.23204
2440746.90905
3173459.33286
3026701.01548
3154856.10022
3149915.49682
3189832.05503
3201361.98824
3199202.6634
3172831.90631
3119938.15885
3034379.38756
2921516.59696
2777787.50078
2649233.57406
2513980.96156
2472250.11374
2997243.97849
2863622.36537
3016568.59835
3047593.94843
3117561.94451
3157203.43465
3177119.81578
3167324.21178
3127110.84742
3055537.41717
2963496.53904
2854541.75699
2769254.69116
2683627.17747
2670936.87019
3037788.29357
2923587.29639
3075812.46655
3123129.11678
3199039.23813
3247905.72376
3277865.43093
3282363.45896
3263118.00545
3223091.33271
3173618.57475
3118737.45438
3085702.71203
3050130.86395
3061970.43626
3477015.41838
3390372.98964
3503787.23528
3536934.05612
3586518.93021
3618687.76604
3639866.97987
3647342.94432
3643577.48426
3631891.0483
3619655.28612
3608260.25004
3611906.68311
3611121.21731
3636706.82078
4679119.87733
4607609.4819
4640620.78994
4615255.63391
4594274.74905
4567887.07501
4542687.06135
4519491.1082
4500308.0629
4486789.09321
4481502.097
4483133.14941
4496536.53415
4508121.64871
4536014.69056
6243132.78854
6178008.34765
6119674.81973
6017387.62757
5910614.48711
5807500.47183
5716603.29528
5641603.21658
5584210.21972
5544500.30971
5521619.98003
5512743.38318
5516565.63953
5524631.54426
5546327.88534
9322406.07459
9198633.29103
9001891.26864
8758998.97684
8502313.69107
8253213.65458
8026644.03713
7830667.62774
7668870.39732
7541496.59199
7446496.04765
7380559.3415
7338706.12677
7313436.89828
7314946.39544
2483986.14071
2432440.10846
2466861.78338
2471382.34673
2512357.70335
2559098.21318
2610815.55561
2654283.49433
2677946.68325
2664211.77178
2611246.499
2506973.91745
2383237.88666
2278200.85276
2152366.57151
2431259.79052
2359880.30998
2370653.60864
2338090.41357
2332938.64165
2325287.92184
2322646.24616
2317781.12939
2305376.2597
2275642.3816
2228155.71966
2156714.31667
2078515.88625
2016709.36857
1953262.19762
2343520.19904
2279835.34341
2297944.64495
2276588.72888
2278681.92896
2271710.74885
2264518.86479
2251775.54459
2231978.34362
2199788.98802
2157198.61143
2099630.14921
2044127.69227
1996873.2256
1967722.80678
2286013.6434
2234075.3527
2267905.69579
2269482.4694
2292855.6805
2304353.05587
2311549.84467
2309167.32088
2296961.05477
2272554.08005
2239512.56984
2196495.50452
2158718.87549
2125413.38896
2117399.64496
2325089.70769
2282647.20932
2325817.12796
2341996.3558
2377237.98768
2400629.50532
2418527.99467
2426253.99873
2424387.60887
2412637.65221
2395508.15653
2373734.99241
2358876.60392
2347361.87139
2353391.57529
2540579.46579
2505687.48457
2546102.85071
2562924.86696
2594648.8211
2617271.84196
2636431.06957
2648984.61712
2656029.17188
2658193.91714
2659092.45342
2658894.45442
2664479.14047
2670485.82192
2684772.16061
3030810.43874
2999900.04569
3020912.69205
3019964.92959
3028988.78445
3033604.19262
3039327.89621
3044916.11612
3051400.88157
3059120.52772
3069611.23382
3081797.01331
3098523.95874
3115034.66149
3131806.21579
3885467.52586
3850086.37832
3835373.0176
3797099.97281
3763212.51814
3729196.78208
3701451.35657
3680827.14001
3668353.60831
3663828.87422
3667069.93128
3675860.4283
3690558.06719
3707172.99766
3720930.0839
5053183.33091
5006024.97303
4940300.9715
4848893.44911
4756534.27223
4667310.4356
4589436.48415
4525801.03705
4477705.14129
4444627.04254
4425259.81735
4416858.92324
4417949.82709
4425535.22523
4431706.89851
7132538.12055
7033362.84424
6873375.14318
6680743.42715
6479267.4764
6280800.90687
6098258.8953
5937877.07487
5802856.76989
5693580.02828
5608902.90311
5546397.62896
5503447.061
5478088.99553
5460923.6537
1386930.15264
1365768.93592
1588969.93961
1839995.25638
2093783.73865
2340292.92752
2546830.30795
2696227.31042
2767610.44042
2736852.52113
2591794.85896
2317502.88625
1931486.03353
1538245.39087
1141605.66032
1396609.27865
1321262.94943
1421584.8908
1540361.89523
1673381.26472
1811947.1837
1932264.91925
2019550.8829
2057772.25682
2034605.53708
1952082.0177
1821005.73353
1670051.13463
1562689.35162
1476659.49424
1456372.47259
1379908.07299
1416704.44177
1468198.00191
1530312.58742
1599727.35546
1664507.83453
1716917.8821
1749870.81999
1760448.44494
1755280.96666
1742899.7818
1733354.63929
1740007.54963
1749016.52142
1634113.43978
1578518.11279
1586731.71406
1610657.98167
1641490.13192
1679109.57367
1720246.46057
1762561.44489
1804513.62592
1845448.02552
1886902.63787
1927755.23262
1965786.49928
1997807.25514
2030544.17966
1938818.99874
1902897.06002
1895121.15548
1901917.89469
1914377.89519
1933714.50362
1961215.97799
1996447.01243
2039092.00662
2087558.71779
2139456.62007
2190612.96449
2236061.7176
2271229.96867
2305661.62037
2347769.1724
2324997.47186
2305064.9953
2295593.91521
2291704.89095
2294656.89797
2308123.62179
2332129.46885
2366323.26285
2408254.9668
2454330.46759
2499722.62513
2540106.6096
2571204.71642
2599597.95543
2892462.56992
2873565.69653
2838734.35559
2807541.04476
2781814.26355
2762257.19119
2754219.6771
2758151.19446
2773758.39268
2798531.81612
2828954.86713
2860719.13642
2890533.01054
2915672.91645
2934325.71042
3528490.62605
3508134.88423
3456302.91273
3401050.93721
3350621.36021
3304990.43582
3270965.94781
3249699.17585
3241363.78292
3243901.78191
3254533.29537
3269429.24663
3286437.5862
3304079.71655
3310939.36642
4121905.46566
4091196.08856
4020036.00232
3937823.05293
3858849.3328
3782575.38352
3717433.4021
3665618.20584
3628111.13709
3603673.60211
3590425.29721
3585192.72562
3586640.05266
3594482.29806
3589455.22471
5895515.58801
5815167.23896
5666141.96101
5496456.37871
5321719.98321
5146470.20743
4983256.96857
4837338.62219
4711965.17081
4607673.91323
4523987.37546
4459044.2033
4411554.09227
4384004.44157
4349616.99902
812245.825437
788576.10965
1225469.27572
1632980.93226
1990361.70566
2317988.42007
2580245.6134
2765289.23221
2852409.60364
2817140.93304
2644510.42322
2316606.12846
1837144.53245
1310004.61377
688974.328738
867494.560768
742224.8833
978741.894536
1226918.51678
1455578.16063
1676644.84453
1856768.78141
1984779.21969
2044431.74629
2024924.42934
1929929.65495
1775815.99482
1595227.49255
1466318.34167
1368445.73762
1058752.59114
942066.020023
1024082.74023
1141325.70965
1256508.46143
1382745.10532
1494858.47291
1585704.15166
1646804.36067
1677756.20843
1688064.92365
1692272.71573
1699035.87856
1723308.75066
1744723.12618
1411355.92374
1338782.1837
1348921.29332
1391778.38834
1435020.53697
1494969.70396
1560771.81654
1630731.05908
1701600.06941
1773052.26026
1845490.36342
1917975.34123
1983055.12781
2036322.06048
2082049.34715
1868853.7062
1827500.76965
1807437.94715
1813145.1579
1819566.90711
1841490.47695
1877189.52748
1927578.87322
1990992.65643
2064670.15941
2143081.31552
2220378.80345
2286737.62736
2336991.27864
2380691.10279
2379550.99026
2356464.33847
2319709.69436
2301560.58387
2285453.1884
2282425.84626
2295085.75613
2324655.48369
2369847.1246
2426833.41419
2489194.96735
2550478.85595
2602966.88943
2642317.41535
2675787.25059
2972703.71805
2955500.73324
2903213.84626
2860965.98302
2822083.37562
2793213.28737
2779510.04355
2782205.16227
2800475.12691
2830813.38846
2867846.22812
2906241.30845
2940644.38163
2968672.67062
2988573.06015
3568403.3599
3552124.79758
3485850.99253
3422214.62772
3362900.371
3310270.52181
3271270.03351
3247366.25842
3238488.25465
3241984.67855
3254111.7748
3270517.81007
3288017.67633
3305795.05797
3310762.38314
3970152.70325
3945540.2278
3868744.46379
3786569.96806
3708813.76001
3633627.35963
3569730.17818
3519260.34892
3483205.53415
3460115.11766
3447858.49836
3443078.26958
3444269.573
3452185.92005
3442908.43301
5619463.50081
5542823.9842
5394333.02387
5228359.04937
5058368.50741
4886185.52586
4724593.46946
4578705.54131
4452000.47625
4345212.34957
4258224.61214
4189390.2541
4138008.50007
4107972.01955
4066497.02801
1426878.28829
1395480.73968
1626346.13792
1879948.48216
2137181.58785
2387833.89925
2599474.90877
2755661.23966
2836563.74669
2820147.66631
2697038.5457
2457054.81772
2124781.69124
1803210.13059
1489004.67555
1419208.83027
1337877.56578
1450262.01525
1577828.39744
1719407.99572
1866391.83246
1994695.83265
2090156.9442
2137295.59259
2124773.68864
2054648.1045
1937755.37711
1799867.64031
1700936.59377
1619288.37772
1480146.66757
1399200.07213
1449342.37113
1512922.27554
1586886.96707
1668145.46797
1743467.06056
1805132.768
1845674.76061
1862099.30244
1859816.04287
1847444.84041
1834215.44824
1835379.38187
1841751.32409
1683624.72741
1625890.60147
1645809.70335
1681376.17207
1723569.98878
1772924.76847
1824270.03409
1874731.61533
1921849.40044
1964675.73196
2004313.89229
2040779.50586
2072858.42031
2098856.88879
2129783.25692
2031299.75727
1994697.43925
1995763.08449
2011584.12991
2032322.85931
2060269.78034
2094762.78019
2134803.83276
2179252.63919
2226544.78609
2274528.64514
2320557.43878
2360763.71771
2391605.89549
2425083.11808
2497632.95821
2474265.31887
2459830.17932
2455670.18838
2455726.54269
2462658.10436
2478536.63953
2503121.67992
2535643.28498
2573998.07329
2615133.25866
2655516.96349
2691618.74749
2719523.57834
2747710.34365
3098568.2471
3078623.30293
3046263.83288
3016950.00389
2991230.86362
2971412.12946
2961724.83258
2962684.29449
2973952.0453
2993532.6652
3018471.39194
3045432.12473
3071562.11849
3094102.51445
3113116.21808
3796414.54975
3773425.98434
3721077.46517
3663975.63129
3609475.86058
3559260.50555
3519557.60976
3491875.99757
3476638.43706
3472358.16568
3476749.75523
3486633.56886
3500055.30341
3515155.90956
3522788.30809
4468417.26294
4433051.21275
4358226.61786
4270322.36071
4183202.09013
4098095.7773
4023293.17999
3961535.08483
3914233.50393
3880720.08307
3859548.39763
3847993.04293
3844829.96422
3849198.38258
3844606.25615
6210723.46965
6125709.47018
5973849.34742
5799160.65418
5618094.44412
5435945.39795
5265464.89973
5112291.2028
4980007.11371
4869478.64839
4780485.48003
4711328.53833
4660870.33995
4631156.18276
4596794.3497
2496366.30304
2437794.61071
2485078.08789
2502129.15368
2556674.00594
2618930.67322
2687021.18871
2748529.62597
2793007.07047
2805634.57639
2786760.23269
2727178.90141
2655716.50652
2598631.02994
2501392.13768
2423490.67196
2349322.43649
2373627.74658
2357358.90972
2369841.39187
2382310.94442
2400051.60023
2415562.65085
2422957.51259
2412865.13018
2383643.26378
2329147.4359
2261607.37685
2204541.94157
2143073.14418
2334584.58468
2270597.02044
2302883.95352
2300666.92244
2322401.38025
2337420.50388
2351652.52201
2359017.57939
2356472.02578
2338098.89763
2303926.93607
2250626.09301
2192748.90001
2141040.07698
2110822.42112
2317065.81387
2268317.17032
2314864.87378
2336025.71965
2378005.78457
2410329.12899
2437278.13215
2452823.79923
2455085.46109
2441036.52855
2412944.0665
2371078.0711
2329876.89458
2292020.27347
2284549.58885
2442339.1472
2406104.32179
2457091.13497
2488953.15088
2537275.87323
2575889.83748
2607779.66642
2627728.83606
2634879.44118
2628601.9733
2612747.06844
2590080.02493
2571800.9292
2557440.36645
2564656.30635
2784551.46223
2756307.67478
2797221.78342
2821766.71786
2857508.18815
2885986.36707
2909944.41105
2926057.82042
2934475.33137
2935877.21555
2933814.03933
2930273.54315
2931891.83888
2935288.52662
2950848.97982
3394036.85402
3367825.23525
3383958.62509
3383201.74371
3388344.52978
3389992.01989
3391715.4497
3392500.59136
3393071.83844
3394201.52554
3397730.11936
3404036.2557
3415693.63299
3429051.74708
3446768.36634
4355380.8671
4320390.02912
4297662.91534
4253424.9212
4209672.51947
4165606.39067
4126774.53035
4094640.01586
4070532.09164
4054948.89691
4048217.44076
4049124.19055
4057805.08272
4070532.81401
4084864.84051
5596487.96681
5545697.0393
5470987.81841
5370085.46281
5264898.07172
5161970.27371
5069504.45638
4991193.24478
4928966.84122
4883047.53182
4852652.94582
4835638.35023
4830429.13367
4833737.22498
4839904.39983
7676322.15476
7570147.24744
7403770.07985
7202037.32522
6989465.4746
6778898.56191
6583768.26022
6410984.65831
6264357.17508
6144808.92612
6051597.34057
5982500.62629
5935043.12731
5906740.29427
5889260.64053
3761511.38502
3564404.58967
3574638.65318
3402213.67944
3275843.28466
3131689.77326
3010326.45388
2920178.46047
2878734.40949
2891670.09772
2970102.89275
3088724.9893
3252576.81455
3380564.33465
3422402.00954
3593692.8814
3413492.72419
3467423.06664
3363096.80464
3304110.40359
3226412.00756
3159296.91199
3102986.69586
3063360.79346
3034955.04767
3013110.70837
2973150.54718
2926551.3955
2850997.44487
2799904.89496
3367904.23212
3215002.70097
3313524.67041
3276793.17904
3286327.19528
3274083.45585
3258937.48721
3233265.51674
3195274.32906
3135140.71345
3049817.91428
2925321.54216
2796730.76326
2650951.73806
2585851.63338
3167960.9366
3037212.75089
3171880.68154
3189115.23722
3249581.16969
3284568.01272
3305389.76635
3300806.56143
3266848.73064
3196654.36248
3093830.83225
2956941.89822
2828226.46132
2695194.61363
2653061.94869
3090133.26296
2979638.32322
3131164.21737
3181116.11711
3265849.02846
3323434.30796
3360717.77423
3367306.60542
3341030.90148
3280547.45467
3195487.47182
3091906.56234
3006692.61339
2925257.59097
2912477.79289
3298720.63447
3211013.81045
3348783.44552
3404453.54609
3482927.88805
3537988.24688
3574196.62769
3584868.25379
3570538.9286
3533960.10726
3485672.98126
3431886.29441
3396793.7995
3363792.43422
3374741.26939
3902591.98913
3837217.11194
3929349.59923
3959637.22377
4000572.64365
4026675.46193
4041903.42446
4043749.19128
4034077.63695
4016347.30618
3997700.79114
3981332.52131
3979343.94552
3977929.42802
4001452.45209
5233748.38593
5171786.26941
5185744.94319
5150759.79082
5115347.64013
5074898.00001
5035092.11652
4997393.73176
4964050.69111
4937328.16517
4920141.40257
4912460.98619
4917999.86943
4926350.70242
4951625.44217
6813765.02177
6749236.33375
6676554.55862
6562703.2359
6440717.24514
6321451.83801
6213571.43826
6121636.60193
6048066.39254
5993727.36139
5958299.59866
5939703.21056
5936126.22827
5940393.5006
5959945.47997
9993374.47939
9862601.63944
9656568.27088
9402237.64327
9131806.56604
8867697.76265
8625577.15433
8414337.20099
8238331.23211
8098468.3032
7993187.15598
7919448.459
7872286.35371
7844041.00572
7844749.26296
)
;

boundaryField
{
    outside
    {
        type            calculated;
        value           nonuniform List<scalar> 
105
(
11188580.1459
7246839.94303
5048183.62526
4419903.87875
5466595.17949
7914376.75573
12037925.4606
11018483.9133
7132458.61968
4976522.78343
4361266.62073
5388902.27003
7792771.99667
11862270.5508
10748017.8159
6947886.83698
4833669.48381
4229502.54414
5241528.0788
7600729.99825
11584225.4082
10421368.1264
6728575.16152
4676288.75
4089933.23047
5076800.44333
7370931.36901
11247597.8335
10077185.3525
6498893.89056
4515302.96623
3949173.90007
4906800.74948
7128813.38403
10891673.4805
9741238.19138
6272506.87939
4354286.08402
3806278.28656
4735884.48672
6888758.32616
10543118.1025
9432962.09903
6063205.01607
4204874.0092
3672685.77497
4576037.4077
6665286.14211
10222202.9558
9162931.21041
5877839.4258
4071501.50859
3552145.74041
4432203.48296
6465970.00018
9940252.0218
8936206.56915
5720009.96963
3956925.34861
3447396.70661
4307597.63111
6295076.67287
9702975.83644
8753538.53661
5590373.91296
3861454.06784
3358806.54075
4202953.03245
6153809.67598
9511597.80971
8612768.98826
5487894.76309
3784527.37303
3286201.38642
4118054.90363
6041553.70951
9364255.28617
8510270.39687
5410363.68411
3724499.03039
3228172.08474
4051464.44565
5956266.22471
9257337.39054
8440088.06239
5354872.82648
3679825.75
3183993.00795
4001908.08937
5895308.48915
9184829.29799
8392106.1861
5318109.6754
3653858.22064
3159475.71706
3972412.5068
5855076.45905
9136232.01105
8382016.59155
5295169.31118
3616034.88143
3113382.44339
3933101.94616
5830015.54664
9126319.04083
)
;
    }
    symmx
    {
        type            calculated;
        value           nonuniform List<scalar> 
70
(
4023946.20281
3906738.36507
3698932.77541
3471468.63114
3295735.79385
3314244.85678
3696615.50712
4817207.79941
6305997.40993
9320355.24823
2485617.7732
2460410.69946
2385391.49923
2335364.40573
2376923.40911
2588924.93014
3068695.49457
3909109.82659
5059311.62984
7116090.43258
1231814.18356
1274782.8465
1356305.57635
1553187.9647
1874936.33607
2298077.80821
2854640.27063
3500390.84759
4101767.21037
5875888.06197
433066.482458
583669.975552
863071.568285
1277439.28953
1771978.51886
2306011.91974
2916683.53767
3526463.16291
3941475.5186
5599556.95024
1274668.45671
1296067.31741
1377608.13814
1600797.56602
1966130.77966
2446921.52275
3059557.36045
3767013.85902
4447030.62117
6190444.71805
2494560.00003
2447491.9274
2369928.67393
2357803.82452
2482878.60851
2819738.11716
3419577.01329
4369584.19404
5596879.49046
7658238.7283
4014525.78767
3868575.63724
3650538.12722
3453216.56933
3365161.12885
3538823.27122
4084270.60499
5345732.91549
6863124.81839
9987726.71287
)
;
    }
    symmy
    {
        type            calculated;
        value           nonuniform List<scalar> 
70
(
3167029.02604
2630956.84201
2465460.18383
2504142.40427
2703526.20295
3090198.24289
3657869.87683
4549278.71327
5552292.12488
7315015.26388
2188691.55512
1947599.37262
1959789.48524
2109101.75773
2344912.6522
2676527.98388
3124167.96886
3714144.74138
4426133.75246
5455735.01907
1147326.3726
1473302.21158
1741958.05241
2020997.71982
2295164.30404
2589310.28084
2925055.86704
3303136.00677
3583704.76872
4345601.59554
672445.954692
1367407.72861
1739355.95498
2073565.28812
2371044.38389
2666278.16191
2980038.70067
3303654.99843
3437789.87014
4063146.53921
1499698.3106
1613516.35335
1833693.05355
2120040.38034
2414783.51258
2737833.5805
3104339.5524
3515442.48772
3839172.2466
4592840.13987
2541140.13912
2134345.87815
2101141.32359
2275500.33053
2555978.74891
2942740.78228
3439435.05243
4078419.03185
4834568.08473
5884151.24487
3496902.90524
2811643.85448
2606191.54588
2679690.64646
2939077.16206
3397198.15612
4017941.77513
4961724.44308
5964189.60823
7844263.73449
)
;
    }
    inside
    {
        type            calculated;
        value           nonuniform List<scalar> 
105
(
3797174.36309
2493892.13888
1389418.81065
812078.492422
1437081.31487
2515355.76429
3809835.90091
3590420.31519
2438758.26646
1367050.77581
788944.205473
1404271.05348
2453196.95067
3603405.61516
3585311.6882
2468800.24165
1588821.14258
1225947.87955
1632915.39557
2496240.20102
3607859.44258
3382383.85493
2465532.71556
1837763.68771
1633399.50949
1883133.38656
2504989.43154
3419136.57592
3222898.8123
2499711.54664
2090141.8587
1990712.59262
2138254.55805
2552625.6096
3276951.63566
3039331.68082
2540320.73851
2335615.06967
2318272.70768
2387353.94808
2608713.7807
3116008.21018
2875804.19683
2587370.71214
2541509.90878
2580528.82102
2598168.4658
2672396.53312
2979335.4886
2742089.7836
2627639.07465
2690574.71135
2765684.91024
2754195.6184
2731409.0262
2876764.02633
2658744.18143
2649579.09168
2761822.32286
2853001.10057
2835695.37475
2775707.39719
2828042.23213
2633972.72555
2635808.75706
2730876.8426
2817711.9436
2820686.30957
2791150.52372
2841545.86899
2684158.83621
2585353.38881
2584846.56625
2643778.35011
2699864.94413
2779923.00285
2932594.25481
2786269.8307
2487506.33646
2306937.66927
2310351.51733
2462084.73469
2734230.63337
3078303.96283
2952009.38318
2375752.33396
1910867.2545
1814387.89212
2131129.7301
2685523.73179
3285179.58778
3088208.84694
2284609.03861
1498830.53959
1250405.65466
1806662.79347
2650073.26122
3455157.62708
3150389.08237
2168230.01751
1062124.37361
492921.650229
1485330.52657
2574228.33724
3531785.65773
)
;
    }
    top
    {
        type            calculated;
        value           nonuniform List<scalar> 
150
(
3759296.10962
3594548.59125
3364606.9277
3152630.46619
3053821.36686
3241001.74741
3831452.35495
5181671.26531
6756633.05916
9918730.90126
3564712.856
3417337.27391
3214087.48727
3024487.70991
2947495.27169
3160336.24062
3775590.26538
5129429.7326
6699741.994
9792808.84469
3568992.90299
3471432.11482
3314886.56063
3162235.9786
3102362.49636
3300521.91921
3868236.16342
5140985.89475
6625016.89539
9586389.76912
3379665.80057
3359452.27634
3273694.33254
3176816.37039
3151822.17354
3357956.12907
3901527.97679
5108065.72977
6512886.61627
9334150.40352
3234559.50432
3293034.62202
3279702.16726
3235668.60535
3236797.55836
3438285.69174
3944978.04072
5073926.91918
6391966.61218
9065300.09952
3067351.77785
3206265.8907
3263186.81064
3268412.26197
3293847.06923
3494376.53528
3973011.82734
5034650.82703
6273842.81938
8803064.96963
2922328.87082
3130261.15134
3243994.07376
3286893.77684
3330065.01794
3530813.40237
3989429.74374
4995686.31123
6166951.17562
8562754.48431
2811312.56157
3066428.13254
3214798.16923
3279812.0008
3334882.41151
3540763.21932
3991623.61197
4958434.4656
6075799.69566
8353222.66205
2757100.86092
3022351.8063
3174246.0427
3243216.94057
3306077.78441
3524785.76179
3981528.45993
4925176.7822
6002811.42124
8178778.52422
2770593.01267
2993896.36957
3112665.11164
3170109.3882
3242230.96476
3485733.43362
3962773.44856
4898280.57672
5948903.78076
8040357.46525
2865341.31434
2976713.46063
3026881.28476
3063999.9111
3153110.5459
3434454.02603
3942775.98635
4880773.80912
5913795.41872
7936394.3387
3013633.77267
2945021.26301
2902193.11956
2923168.34943
3044933.37801
3377586.00416
3925162.95063
4872947.90757
5895620.91528
7864000.29478
3213716.94541
2908896.63297
2773944.93157
2790661.58089
2955379.16823
3339535.52317
3921676.22836
4877819.44686
5891959.77514
7817790.15261
3368242.26336
2839577.19406
2626025.46974
2653467.113
2871068.37944
3306111.14305
3921569.44043
4888094.78861
5897910.34474
7790675.9431
3434522.47226
2796667.30792
2560746.719
2606975.68045
2852677.42406
3311663.36465
3940464.09817
4909727.68532
5915506.93336
7792250.43867
)
;
    }
    bottom
    {
        type            calculated;
        value           nonuniform List<scalar> 
150
(
3770559.08173
3635435.05539
3414488.70363
3167107.68619
2966815.0666
2978122.04758
3395321.32977
4612681.19796
6178691.58498
9228261.15446
3570773.14996
3448639.48405
3249251.41707
3017845.97145
2832062.19815
2866188.2978
3315175.49726
4549782.35608
6120769.25096
9109045.39527
3569031.94515
3497329.19458
3343956.0936
3151672.63121
2991166.55375
3024087.06215
3431932.31309
4581752.17209
6060893.91215
8912426.93882
3365444.52341
3368528.15284
3281763.88864
3143128.32657
3020679.36683
3072661.29592
3468320.42182
4558805.67391
5960498.58048
8671965.27444
3203631.43074
3283727.04549
3266637.11132
3180858.61621
3090350.7894
3150406.69421
3520952.30121
4539537.95791
5854973.29683
8417281.19679
3014422.08938
3174299.35832
3225657.2691
3189482.79953
3128807.64768
3200066.22856
3555360.59998
4514700.71643
5753196.80888
8170531.99074
2843205.45183
3073389.97379
3181579.24366
3184296.51481
3146980.57768
3229895.3494
3577868.70149
4490636.27073
5663472.12066
7946292.53575
2701888.49451
2983168.29719
3128070.94829
3154758.70532
3134717.80021
3233194.98405
3585673.56655
4468099.55271
5589424.46162
7752568.61413
2614587.2512
2912957.38656
3065704.69132
3098579.46343
3091244.31167
3211707.81592
3581328.03872
4449133.84775
5532758.46761
7592880.74714
2592638.99335
2859702.12424
2985845.93011
3009466.09359
3015510.37177
3168501.10415
3568357.1362
4435510.48441
5493600.80531
7467477.76382
2651670.15145
2821908.11774
2887935.03984
2892710.98286
2918584.32088
3115289.96153
3554478.13344
4429936.03385
5471135.47563
7374283.49562
2762468.68776
2773149.92467
2755147.16748
2744250.6019
2804000.33514
3056455.67159
3541478.90544
4431409.22828
5462746.41592
7310110.00516
2930000.52869
2730705.20877
2628428.75527
2611689.98308
2713902.47783
3020077.42109
3543555.05086
4444230.17266
5466563.60623
7269570.58544
3052635.12066
2655308.74911
2478328.59128
2470128.70374
2623303.14447
2982562.80168
3543269.57469
4457415.7296
5476178.69448
7245636.55077
3115747.67168
2617433.87404
2418246.90113
2425663.13413
2606203.81913
2989879.97339
3564880.25251
4482130.1545
5496196.7017
7248307.1279
)
;
    }
}


// ************************************************************************* //
