/*--------------------------------*- C++ -*----------------------------------*\
| =========                 |                                                 |
| \\      /  F ield         | foam-extend: Open Source CFD                    |
|  \\    /   O peration     | Version:     4.1                                |
|   \\  /    A nd           | Web:         http://www.foam-extend.org         |
|    \\/     M anipulation  |                                                 |
\*---------------------------------------------------------------------------*/
FoamFile
{
    version     2.0;
    format      ascii;
    class       volSymmTensorField;
    location    "1";
    object      sigma;
}
// * * * * * * * * * * * * * * * * * * * * * * * * * * * * * * * * * * * * * //

dimensions      [1 -1 -2 0 0 0 0];

internalField   nonuniform List<symmTensor> 
1050
(
(3839642.19733 -143148.605045 191537.048713 124956.595036 -21950.8957497 72988.0469663)
(3579202.12978 -423808.222616 106302.257783 160422.176715 -26586.0782088 31724.0151083)
(3499461.94462 -679782.098134 177799.488946 249979.43525 -49063.6559254 51489.79756)
(3167941.36293 -888873.713132 247703.577707 360209.444219 -77694.2662548 45590.1674082)
(2852712.63044 -1059378.38938 301189.978495 502279.931948 -113674.606234 42648.0213529)
(2488082.03566 -1177749.41644 346337.592902 664733.652676 -156649.651074 39474.2882262)
(2122940.64014 -1252315.02777 376655.5945 848637.636738 -203979.065876 36720.4185436)
(1769616.21891 -1286426.41155 389827.087278 1055545.98186 -252869.434749 35110.5799871)
(1446775.47245 -1288386.61532 382588.396331 1295651.26409 -298707.236559 35169.7441774)
(1158740.97191 -1259563.91022 352426.08842 1578813.81658 -334012.74842 37401.7766472)
(909594.473519 -1197961.35268 300314.689097 1923314.01507 -350251.394243 42312.3386251)
(683288.009913 -1078377.97295 230803.627849 2304498.62165 -334550.442264 47512.3901506)
(492806.743413 -883108.428429 155997.081161 2724718.64052 -281210.908357 57681.9750483)
(324133.478903 -592005.791399 94221.8466901 3035421.63404 -194875.548766 47373.5211045)
(251588.163064 -138947.64353 58421.7776335 3241744.19125 -30802.4012974 71871.6537581)
(3756915.49317 -170321.826323 173511.828816 242936.957268 43293.7134311 77280.6656843)
(3434004.50119 -602741.03674 67129.9318615 295299.336634 48836.0016802 39159.1370265)
(3301359.55481 -951254.561651 117503.571774 451044.938296 33627.3434246 60548.5268453)
(2887262.41582 -1227185.63474 166404.091761 631456.274836 17332.8029808 55287.3645696)
(2473837.49855 -1428958.29877 204465.337921 858556.869861 -3521.3741254 53558.5836841)
(2007336.29125 -1539611.74415 239006.526518 1107574.49582 -28862.1968602 51210.4606174)
(1543596.71671 -1566116.11634 264655.609345 1372642.39815 -56738.394425 48727.8887656)
(1104995.31815 -1510860.44001 279946.530147 1643223.91486 -85401.1825376 46395.3584724)
(720840.00394 -1382795.04381 282656.942948 1912452.62673 -111650.484397 44231.8356131)
(412502.902013 -1190845.41156 271750.413715 2166448.07365 -131000.076582 42307.2256683)
(201248.575169 -952143.937522 248696.963481 2393715.97515 -139360.03684 40932.1457021)
(91017.8412412 -687716.975395 217326.359864 2557352.11328 -131663.441497 39077.2528952)
(81714.7758595 -434195.575919 183966.816752 2674313.16218 -108248.083103 41690.549436)
(122160.427966 -232465.523693 158655.30614 2690672.20232 -77045.0603426 31174.6351196)
(164452.145139 -29348.9545181 143926.000667 2706313.93468 19203.1256506 47267.7555127)
(3533575.15004 -182441.737425 161896.67823 247458.52874 98823.4880071 70982.4736948)
(3173943.49378 -685281.972112 47895.9248761 305657.362827 106179.158414 32589.255358)
(3007296.42192 -1075272.20364 85768.9372973 498656.872344 93060.2665496 53236.481711)
(2547218.06887 -1373094.98515 122857.816535 714310.824478 80285.4476633 46970.2460416)
(2082707.28788 -1578200.25613 150838.510876 983923.734234 64625.4535782 44237.4695874)
(1567823.50832 -1670555.51316 177436.356203 1272165.98702 46266.2202043 40794.9807764)
(1064037.09339 -1657607.10732 198462.710425 1567461.06302 27266.8090391 37299.1518673)
(600970.972991 -1543878.61033 213776.117734 1849309.97843 8891.03420262 34092.2839074)
(214177.983274 -1344497.33602 222648.40934 2100070.07252 -6816.42414735 31287.4622237)
(-70785.7011104 -1081106.19598 225476.40228 2295401.69729 -17646.0047464 28960.497982)
(-236231.077079 -788347.637572 224008.32986 2423445.14302 -22937.3598082 27556.8996298)
(-292557.674547 -507210.649032 220719.30472 2457274.44898 -21478.9347322 25604.9643046)
(-259872.917024 -276862.34126 217434.136465 2449666.33667 -16766.5158155 28202.6117629)
(-210128.690948 -133009.243066 217309.130701 2358962.19174 -15499.2106186 16892.1954223)
(-160463.843395 -14589.5075495 218413.469504 2340181.2316 45370.674895 32787.8619783)
(3189753.10799 -187703.228723 153913.102861 51610.927906 167140.719789 63659.6725799)
(2802030.4149 -730871.186329 43743.3730955 116675.016028 174761.480827 26633.071978)
(2615456.91237 -1143619.6682 77572.231416 339455.121935 162153.261308 46565.5006005)
(2132786.14353 -1446974.08678 111413.414602 583079.941207 149835.170872 40745.4906602)
(1644654.56913 -1645879.34487 136662.244983 882810.123114 135718.34894 38302.3206045)
(1112425.83343 -1719829.8664 161538.754409 1193249.05289 119760.598405 35222.631684)
(599267.215759 -1679603.77575 182853.760316 1497902.4051 104019.522783 32088.0952482)
(137420.947363 -1534763.21599 201404.548238 1770346.5578 89085.4077105 29203.6048874)
(-238722.442691 -1307901.90822 217261.759588 1989304.06024 75845.019069 26615.4174511)
(-508543.441081 -1029627.71799 231025.934774 2133063.81254 64747.3311461 24353.9130094)
(-664780.410462 -740723.206548 243563.647269 2198447.6993 54730.278295 22700.4218935)
(-727460.221725 -479553.715023 255240.38073 2177269.35545 45777.0759603 20370.6163752)
(-721066.576697 -274585.597442 265389.477875 2133061.36562 34582.717116 22016.8188601)
(-707131.700257 -141173.011818 274296.909263 2028194.08631 16958.4948971 10741.7707229)
(-685383.19197 -27112.8052253 280516.397434 2011765.93109 59478.1302143 25089.5151155)
(2721528.9014 -193816.979966 147279.066535 -422683.521169 242913.515991 47547.7953836)
(2312103.4281 -765453.535365 48214.7512583 -348636.298124 249579.218964 12671.935008)
(2112822.16147 -1196113.6753 82967.9682385 -98509.8387906 236069.893209 31301.4643464)
(1622416.68581 -1501491.61759 118276.447355 173322.457228 221838.155688 26154.2378063)
(1126587.78038 -1694211.14356 145009.039387 500696.199699 206279.048228 23960.3604512)
(594381.046357 -1756273.22574 171537.77002 829969.016917 188964.081318 21217.4086305)
(86850.8650788 -1703088.93193 195420.901573 1141559.78422 171901.146044 18362.7135182)
(-365124.571982 -1549698.69287 217891.054761 1407638.82426 155143.544523 15699.1089933)
(-732668.603067 -1323445.59941 239245.892822 1609421.73731 138818.465689 13253.4961944)
(-1002772.08819 -1057236.41213 259780.136255 1732293.4766 122549.196127 11048.0884105)
(-1175935.01043 -788233.821157 279503.739024 1782578.28549 104835.103083 9323.06962467)
(-1275246.0561 -545321.525503 297626.718768 1760715.83571 85871.7601865 6903.13039741)
(-1318651.08753 -345127.057285 312736.733941 1729233.55618 63095.3759892 8118.68868206)
(-1356146.53467 -194819.301401 324604.52457 1643166.21857 34428.508246 -2856.6316491)
(-1363815.2593 -46975.2722538 331713.417446 1640141.66017 66026.8929962 10547.2544068)
(2104895.46356 -207485.045611 140377.871304 -1276754.71157 321598.184882 22988.3691079)
(1680121.85577 -817204.673222 57688.1885922 -1182947.94986 326483.909306 -8816.81825823)
(1467529.91372 -1275754.3885 96453.2813101 -893886.158456 311058.747793 8293.94285072)
(975222.116449 -1591355.08834 135958.938796 -576081.892919 293363.173718 4239.6808255)
(475826.61645 -1785197.15992 166788.749416 -203417.539058 274309.824991 2627.67087954)
(-52682.298325 -1844117.18918 196946.420636 163563.848848 253073.669355 553.191094194)
(-554261.046194 -1788275.08057 224548.380963 502660.815271 231632.333688 -1735.91546026)
(-1001559.83994 -1637337.02799 250874.502729 787223.146814 209776.69649 -3964.75567203)
(-1372384.23104 -1420265.49621 276177.786071 1002592.19658 187364.675753 -6141.91004268)
(-1659530.39786 -1167810.56718 300413.584514 1141107.9906 163867.66877 -8235.43691565)
(-1866496.96945 -910501.391453 323155.37298 1213360.82946 138089.433081 -10057.0898734)
(-2012284.07743 -668130.59645 343213.447523 1223200.51351 110659.209498 -12527.868107)
(-2106461.37727 -451759.705124 359384.452342 1223867.87549 79754.5346824 -11846.9592804)
(-2185328.92655 -265582.651945 371543.301096 1168282.12311 44479.734713 -22111.0933524)
(-2218541.45287 -68201.5397927 377864.639457 1179485.68689 67763.4937717 -9972.64554931)
(1327714.66683 -231088.267888 132383.941374 -2506397.77181 414320.745226 -9207.38760122)
(897436.1684 -894005.781417 72605.8288105 -2381798.18389 415773.751459 -36887.9566094)
(666186.961625 -1394158.09225 118757.616052 -2039003.05208 396882.378935 -21503.6223292)
(173528.145774 -1731373.75245 165035.125173 -1653593.19569 373635.563024 -24045.3543221)
(-331237.659182 -1935217.24226 202311.459788 -1212439.9157 348566.413311 -24679.3425426)
(-859057.154707 -1998405.63726 237695.387352 -781925.332943 320612.044443 -25701.7459841)
(-1360087.7256 -1944926.86182 269825.623897 -387355.273767 291822.816977 -27048.8657664)
(-1810508.04668 -1797812.51587 299856.987922 -53882.1212843 262051.634292 -28500.3187167)
(-2193321.89285 -1585747.41456 327986.818997 207017.713721 231252.653571 -30089.165521)
(-2504087.24123 -1336271.14787 354037.004138 391747.517536 199131.932496 -31772.745622)
(-2745642.47611 -1074297.15286 377550.138145 511275.986284 164998.829506 -33385.8894183)
(-2931350.60992 -814696.400997 397473.032983 569536.166532 129800.454669 -35614.1244746)
(-3064214.26872 -567395.614959 413131.179286 609337.260709 92208.6133321 -35263.387972)
(-3171273.72215 -337430.017208 424739.251323 586740.921981 52079.0937678 -44361.4130962)
(-3222430.35227 -87911.7501979 429606.445395 610226.47613 66181.527982 -33827.5093655)
(267364.396597 -280586.402125 120845.223769 -4461327.18317 496678.594469 -71221.2855834)
(-153689.302888 -1049763.80652 87087.8813194 -4266278.93623 494842.69806 -92994.0191173)
(-425548.420196 -1629544.46546 141076.93801 -3822929.86835 472607.506198 -79078.118551)
(-933647.415451 -2016068.74793 194001.270585 -3309049.9051 444195.816317 -79231.3796821)
(-1463391.04599 -2245365.44553 238002.34069 -2735578.36555 413215.739554 -78014.9431771)
(-2009675.81432 -2317881.39919 278676.361225 -2176640.14956 378552.731519 -77203.1420614)
(-2527921.07416 -2261995.60566 315174.819663 -1664248.91069 342333.727128 -76901.1152693)
(-2996277.63441 -2105055.53122 348416.027366 -1224223.14964 304697.599491 -76980.2132182)
(-3400885.93137 -1876784.63067 378577.933716 -867406.248245 265897.403568 -77485.3279627)
(-3738054.19001 -1603858.00127 405512.019356 -595728.715017 226003.873338 -78354.9760947)
(-4009237.09363 -1309223.54454 428948.046024 -399757.96674 184847.815486 -79429.9835367)
(-4223155.32599 -1006967.19939 448150.391346 -274637.515812 143455.173242 -81136.0881197)
(-4380264.46496 -708877.232577 463000.497088 -187397.533394 100940.431075 -80981.7332813)
(-4500288.84936 -421249.389325 474028.920042 -171155.244689 57621.1756526 -88348.3621417)
(-4561889.15719 -109839.715775 477339.792762 -135102.715832 61537.0902794 -79798.9400483)
(-954265.51999 -336195.167723 104227.704444 -6593519.12272 607072.276401 -79499.4001058)
(-1332161.69518 -1211701.62828 110904.949561 -6326432.02574 599190.863314 -95386.8804198)
(-1654618.20948 -1868927.83331 177870.347085 -5774383.17827 571067.993181 -85571.22739)
(-2174264.09796 -2306159.98194 241031.828965 -5123559.98168 534627.288104 -85443.9851057)
(-2727971.88811 -2561634.95175 294784.875582 -4408834.88408 494449.719907 -84679.5905703)
(-3292010.37204 -2643221.56284 342840.865499 -3710794.69927 449823.158697 -84382.8392729)
(-3826515.60029 -2582410.38987 385113.127296 -3069003.61003 403169.744549 -84713.2528585)
(-4310293.81749 -2410383.96676 422446.128674 -2511195.83271 355134.013555 -85609.2812532)
(-4730896.66472 -2158478.40814 455217.982554 -2049254.1478 306357.839658 -87095.5230817)
(-5084366.66306 -1854168.51656 483533.831495 -1685020.2316 257252.854218 -89083.9576305)
(-5371000.53232 -1520691.12682 507449.187507 -1411055.94498 208040.226607 -91398.62279)
(-5596789.69375 -1173701.6768 526628.799608 -1220611.6433 159600.797851 -94189.9864273)
(-5762061.55053 -827454.619112 541377.811556 -1090022.72235 111463.9398 -95734.2719999)
(-5881311.98745 -488920.148149 552442.791624 -1035472.79243 64314.4045949 -102082.109868)
(-5946102.99581 -126758.061336 554690.844948 -990535.959624 53074.6798313 -97292.9070064)
(-2861121.30271 -465851.258084 136635.040531 -10405325.0688 1225579.69527 -387600.65347)
(-3166930.00266 -1600180.88413 242479.687141 -9946940.74342 1194186.389 -392352.985518)
(-3608557.31578 -2428891.14222 385460.476234 -9154655.67868 1128763.49753 -381769.487309)
(-4205784.73361 -2981557.30905 510477.866164 -8205301.16841 1046254.57023 -375602.685625)
(-4850596.26021 -3287972.31702 616058.443178 -7184872.07386 954048.293695 -369618.455404)
(-5489359.06242 -3370757.51252 704941.961866 -6190647.65009 855346.081726 -365062.034758)
(-6082401.80854 -3272397.05261 779325.740564 -5280117.25561 754641.605309 -362610.829246)
(-6606903.81022 -3036449.53515 841379.738781 -4488081.38951 654261.831457 -362486.660344)
(-7052127.19198 -2704119.21626 892943.236021 -3829232.15022 555778.58786 -364678.366766)
(-7416394.00351 -2310692.03766 935374.191437 -3304344.1237 460071.438954 -368897.308015)
(-7703077.6895 -1884845.35348 969722.285493 -2904728.92479 367631.886454 -374631.487447)
(-7920251.99065 -1447188.17996 996539.979004 -2617531.03216 278984.51367 -381388.542582)
(-8072773.01564 -1014461.47883 1016586.3355 -2424289.09764 193919.084779 -387767.099894)
(-8169995.31425 -594620.282022 1031146.71192 -2317248.57227 113612.480306 -395308.618517)
(-8228747.14122 -153187.80879 1034598.58809 -2259575.49758 62367.0055161 -397313.681522)
(2371372.76563 -89458.2352749 330234.058497 44062.5431651 -16939.34864 -117376.584223)
(2291028.16903 -264400.911263 269940.12188 69094.3585683 -34063.7887224 -154934.964191)
(2195109.87535 -419027.9457 459453.860007 118819.730384 -85517.8573406 -135391.48148)
(1987984.32283 -547862.4932 632407.767916 183938.757016 -153756.469008 -136983.085425)
(1788932.2697 -652870.382146 768538.149452 267939.670767 -239214.955633 -135408.568751)
(1560699.33534 -726493.84841 883435.71585 364345.67422 -341684.165921 -133167.67392)
(1335174.08809 -775096.789006 960640.303261 474746.366731 -454270.906433 -130030.267523)
(1119571.16661 -801698.749707 994651.560517 601500.71347 -570400.602622 -125209.840421)
(925493.986684 -812865.954497 977549.073748 753756.384748 -678881.224158 -118278.34866)
(753629.385395 -809670.678256 903352.509314 941584.42777 -762095.245321 -108596.242685)
(603569.390064 -789113.605837 775240.815539 1181031.15273 -800334.455626 -95530.7746196)
(461668.828221 -729798.333939 604101.544536 1459720.16393 -765525.158544 -81955.5953515)
(334612.904578 -612238.011386 419123.644122 1771916.42502 -641113.091316 -62918.0014719)
(217149.397793 -417441.701584 266099.724104 2020462.51697 -449396.632024 -68701.3311862)
(165279.337982 -101482.211347 172175.901925 2179084.38899 -59845.6040011 -36350.1966398)
(2320165.56387 -109644.633479 303505.730241 75722.4485842 139591.677543 -129463.227655)
(2198003.18085 -379675.916363 179459.319131 119397.978069 143690.311412 -159467.210623)
(2068990.85158 -591842.685298 318098.517377 206509.39754 104263.946499 -139498.658121)
(1809553.83265 -763206.540204 442826.75424 316347.255761 61526.204483 -140096.286842)
(1548348.1572 -887464.531974 543098.364882 453014.020568 7082.50437673 -137293.945374)
(1255991.16106 -955952.426708 633282.288577 602439.177805 -58389.9352914 -134605.126593)
(968079.226927 -974563.528286 699793.647134 761757.472073 -128887.648352 -132311.488349)
(697497.61312 -946066.138002 739531.236872 926232.783366 -199503.054306 -130271.925959)
(461224.242362 -877150.771742 747892.346798 1094797.34263 -261544.852453 -128781.409666)
(269598.797512 -772599.680926 723951.100152 1262617.58709 -303812.564864 -127777.091591)
(132793.55814 -639762.11336 673584.943773 1425255.97897 -317294.584273 -126938.423295)
(51709.8289428 -485693.769167 607556.287198 1560718.00449 -293036.280852 -127010.260024)
(27792.2493547 -326993.496308 540663.755152 1668154.04909 -232074.031209 -123024.774403)
(37089.1483571 -185629.733929 494124.104603 1720903.37126 -166148.852718 -131957.010117)
(51313.383745 -27904.1294816 466440.392991 1739137.27913 30197.5902502 -115170.413276)
(2179886.00866 -120389.442603 286542.709152 53426.4021497 286617.907003 -134128.979873)
(2030226.76545 -443718.646561 132299.750495 108409.233049 296812.360248 -163626.08169)
(1877646.66006 -687776.246883 240076.615473 220698.891182 261579.826119 -144205.539145)
(1584052.16744 -878105.905546 336860.52946 358218.281945 227286.379962 -145664.854027)
(1284938.91662 -1007347.82665 413393.926594 527311.368349 184879.947498 -143835.511439)
(955575.191274 -1065183.06295 485537.464253 707183.215502 135623.9993 -142340.175245)
(635283.037278 -1057682.93912 542581.022423 890672.695637 85531.7254628 -141410.687111)
(341631.995517 -988852.119186 584574.775244 1066175.8384 38191.156571 -140919.159349)
(95747.4436869 -869004.310527 610296.394252 1225022.60134 -811.540320449 -141106.102002)
(-88529.9728525 -710837.016406 621729.164823 1354263.92339 -26023.4933849 -141916.865588)
(-201661.187776 -533448.378914 624321.651007 1447586.96175 -36850.804283 -142793.744804)
(-249901.002892 -359117.495125 624488.964697 1487923.24035 -32436.8212071 -144801.665311)
(-244292.362751 -209667.949994 625645.527061 1498614.68168 -20334.2062937 -142738.141726)
(-222758.99651 -107165.00493 634269.795344 1467557.60327 -25396.2583467 -153063.512604)
(-201914.650533 -14444.6780379 640708.600275 1448257.92579 73390.0737675 -139274.497667)
(1960101.15581 -125556.33622 276285.211022 -88590.4870247 472022.908469 -128807.80593)
(1788085.27204 -481845.794234 121880.399463 -25671.4908228 484682.443717 -157044.364189)
(1621454.32269 -745322.787075 219045.517805 107216.684368 450231.210973 -138223.277108)
(1308766.14992 -943332.94155 308313.066216 266416.0055 416986.050908 -139364.290704)
(989569.709224 -1071537.43884 378440.885211 459075.329099 378256.406419 -137451.969791)
(643120.551555 -1118910.10606 447114.490176 657886.520974 334694.256105 -135756.705134)
(310205.142038 -1093361.39466 506136.857256 852084.408534 292096.39958 -134561.824552)
(10543.0076767 -1001739.47851 557843.105192 1025597.45276 252101.38505 -133715.01623)
(-234695.491137 -858950.421827 602720.286829 1166367.13143 217135.457979 -133456.760785)
(-413537.869681 -683828.327305 642695.736912 1261819.97724 188101.342281 -133712.682429)
(-521874.912365 -500828.91639 680277.892175 1310126.1682 161677.984981 -134082.121346)
(-571409.113574 -332906.141895 716096.071262 1306501.21414 136438.982999 -135420.217161)
(-577376.326804 -197177.679096 747702.507922 1283106.16835 106365.297071 -133206.972679)
(-572398.365031 -103647.290355 775193.923248 1234985.303 53601.7063998 -141761.194086)
(-566805.771703 -20472.1602669 792690.175058 1208910.59423 97656.8926835 -130127.954319)
(1659154.77748 -130102.591517 268686.110721 -403161.512763 679417.009152 -123003.793638)
(1468298.82284 -509410.0841 134196.691072 -333077.112899 690465.555743 -149335.187482)
(1293701.28887 -787665.064371 233651.048778 -180838.463253 653158.532181 -131935.712435)
(972649.389806 -989414.389968 327562.783022 -927.298254724 614430.045628 -132823.669014)
(645139.145761 -1115532.58729 401897.282104 212763.490917 571406.508466 -131164.37517)
(294559.207105 -1155991.51817 475320.556167 427286.818386 523612.722151 -129546.808696)
(-39260.7774458 -1121467.92659 541533.602 629611.999946 476633.952547 -128319.294456)
(-336946.112788 -1022040.38223 603942.477996 802092.607065 430597.582351 -127245.526186)
(-580109.57822 -875695.511813 663441.538417 933411.583102 385871.672305 -126520.225341)
(-760779.306811 -703344.71278 720896.881299 1014675.17716 341303.377407 -126072.203758)
(-879294.158703 -528336.930795 776342.98473 1049910.4203 292719.207674 -125613.576257)
(-949602.147396 -368991.721021 827489.896574 1040376.11736 239819.28077 -126032.307748)
(-983921.361741 -235597.344716 870230.75159 1019468.73833 178696.484507 -123292.262398)
(-1008627.33429 -133263.295505 903913.775209 979273.536376 97335.3222938 -130500.902569)
(-1020663.37893 -32269.1153248 923233.304325 957356.422881 109550.459848 -120102.076453)
(1262947.69746 -138859.473647 260553.761575 -961969.038603 896357.18693 -114036.458049)
(1056167.23797 -545903.18673 160260.197599 -879045.227992 903216.62181 -137719.010962)
(874569.647473 -844365.830045 270407.185575 -699900.371254 860471.396481 -122352.440989)
(549946.310127 -1053984.70083 376431.275878 -488610.774749 812044.004442 -123066.090693)
(218096.55156 -1181900.8784 462042.099376 -243365.863131 759265.132103 -121829.199243)
(-132532.764154 -1220633.69653 545508.273386 -2023.03641165 700459.434803 -120469.546338)
(-465053.671639 -1183863.28106 621956.90773 220588.817592 641117.134976 -119397.797947)
(-761936.338541 -1084531.06725 694883.569469 407135.354247 580623.399748 -118324.229873)
(-1008635.61133 -941787.72042 764984.89293 548446.918512 518626.037692 -117424.176575)
(-1200486.59166 -775616.125453 832127.262383 639726.686481 453632.418876 -116640.402133)
(-1339683.57196 -605815.927027 895137.968973 687771.389471 382461.610809 -115820.31055)
(-1437923.64021 -445455.823828 950719.270842 696412.796802 306183.884682 -115734.015804)
(-1502730.32172 -301411.951367 995476.800729 694295.86491 222830.623856 -112968.357115)
(-1552239.16085 -177122.195808 1029152.05996 672143.603419 123661.031278 -118908.155996)
(-1579991.26997 -45650.1335715 1046311.94737 657632.055681 113690.710302 -109827.45724)
(763409.637141 -153754.667494 250259.290452 -1768932.97209 1148226.69335 -100072.768899)
(545190.477217 -598069.508241 200548.315524 -1666926.84009 1146236.43661 -120403.859962)
(354268.699292 -925574.110096 330151.565896 -1450899.99619 1094027.88074 -107651.946862)
(27499.7882983 -1150186.47466 454958.613108 -1194521.08412 1030314.63911 -108333.468941)
(-309386.162156 -1285481.36793 557867.261316 -903005.638319 961062.926766 -107673.622675)
(-661317.906804 -1327329.63852 655321.863571 -618545.03909 883815.949412 -106791.510975)
(-995273.74361 -1291915.01654 743792.630359 -357965.871102 804280.766652 -106115.861941)
(-1295707.51248 -1194346.22172 826420.427254 -137889.470281 722019.386711 -105349.11006)
(-1551223.74826 -1053684.04391 903735.156894 34323.6703883 636960.515072 -104646.636092)
(-1758785.52773 -888084.636315 975239.817818 156348.031123 548299.57721 -103968.691103)
(-1920189.63317 -714024.717354 1039697.48077 235288.81733 454281.232268 -103243.498881)
(-2043763.39163 -541575.890566 1094260.39432 275060.568929 356968.357566 -103099.583295)
(-2132949.90908 -376867.101645 1137004.9602 298510.061376 255458.332929 -100734.543159)
(-2200297.24528 -224286.234902 1168690.91323 297046.463467 143403.993058 -105590.917975)
(-2239428.46645 -58628.0055681 1181994.80214 290577.276361 112484.603451 -98121.9060757)
(93413.243701 -183793.768521 233024.739418 -3009384.47643 1385887.87284 -97822.0226495)
(-128587.465305 -696172.428975 242445.013533 -2864284.41314 1374613.77243 -113995.777296)
(-340407.411136 -1074449.33677 394357.599212 -2582479.13649 1312471.15786 -104128.841828)
(-676755.52705 -1329481.31657 538968.118983 -2243894.7824 1233490.60567 -104779.034785)
(-1028617.03454 -1480156.13679 661010.371672 -1867403.17785 1146899.21093 -104666.252688)
(-1390923.98679 -1527073.82481 773450.845175 -1500615.15628 1050080.67058 -104376.917684)
(-1734128.58965 -1489309.74489 874127.350561 -1164565.99481 948998.931505 -104275.679501)
(-2043847.6074 -1384841.69419 965553.380258 -876346.803607 844040.832686 -104095.541245)
(-2310784.28822 -1233462.63203 1048232.15795 -642952.249764 735979.728982 -103948.10923)
(-2532499.0723 -1052875.45437 1121782.03334 -465601.546302 625040.517472 -103793.673872)
(-2710092.512 -858356.527904 1185520.47834 -338096.533848 510911.788823 -103590.590474)
(-2849196.5738 -659428.605553 1237535.18338 -256017.242994 395977.054094 -103778.458532)
(-2951677.69078 -463325.343086 1277442.36355 -201966.400206 280160.906791 -102211.516289)
(-3025870.6014 -275595.972966 1306893.17056 -179901.841687 158930.541418 -105911.756515)
(-3070865.9417 -71880.1964949 1315882.95291 -177236.831113 106397.174037 -100437.781868)
(-712915.963654 -224115.798512 202999.231932 -4502801.1964 1622492.07575 -40664.0271678)
(-922426.107262 -818677.660166 293268.356821 -4306777.44631 1596131.81039 -53687.4963897)
(-1165389.77322 -1257272.45523 472014.998034 -3942417.43159 1521112.00627 -49763.0381515)
(-1515684.47052 -1550834.32756 637831.709141 -3503226.74741 1423671.51855 -53289.1908259)
(-1889262.57693 -1721250.06761 779791.397605 -3022182.47377 1315946.23099 -56865.5146454)
(-2268596.15189 -1774249.89228 906244.174467 -2552824.09536 1196125.78559 -60534.9551656)
(-2626896.63219 -1731482.57829 1016866.48903 -2121582.54389 1070860.09357 -64467.22917)
(-2949888.46944 -1614045.19318 1113844.80796 -1747141.71186 941921.55308 -68405.4128424)
(-3229190.85924 -1443276.77872 1198178.44803 -1437327.60015 811183.192113 -72358.9655543)
(-3462307.1027 -1237851.93626 1270210.33803 -1193281.07465 679870.500699 -76229.4415271)
(-3649787.58501 -1013567.71142 1330249.55655 -1009978.8911 548765.449327 -79905.176913)
(-3795876.1883 -781160.368034 1377645.94245 -881877.288163 419994.369343 -83537.4833953)
(-3902346.2999 -549622.847032 1413357.75361 -796349.290097 294036.380868 -85612.1246585)
(-3975004.05128 -325228.997228 1439759.9525 -749821.444885 168195.133021 -90168.6538988)
(-4021262.07961 -84336.3702494 1444499.18546 -737526.934088 92128.9843071 -88913.3684786)
(-1735552.31301 -272212.800579 219649.721749 -6313443.73481 2568031.72475 -151013.237112)
(-1899488.82687 -976559.438825 499075.194683 -6021057.2377 2494496.69781 -158704.436799)
(-2189216.9874 -1478068.51912 793641.676364 -5545186.55253 2352766.94375 -159616.407567)
(-2555839.18435 -1811534.09109 1048346.41465 -4967017.16066 2174474.98618 -163523.780649)
(-2950065.55761 -1993643.79833 1261320.02637 -4346074.57909 1975991.22978 -168268.24805)
(-3338160.55461 -2038775.73862 1437229.57388 -3742833.5933 1763245.59008 -174218.904159)
(-3695658.19663 -1973739.22989 1580376.65839 -3191881.85409 1546689.32725 -181567.673182)
(-4008720.8629 -1825814.24395 1695341.74987 -2714386.16028 1331818.51844 -190222.27544)
(-4271259.76381 -1620773.79054 1786351.62769 -2318824.03112 1122678.52354 -200039.139965)
(-4483053.03635 -1380535.94396 1856898.82994 -2005141.43238 921672.910977 -210696.83802)
(-4647087.03178 -1122703.80094 1910156.13009 -1767511.15451 730216.478367 -221717.954064)
(-4769126.31174 -859744.877329 1948318.65663 -1597096.07004 549384.98353 -232619.255326)
(-4853622.79049 -600839.521807 1974191.17811 -1484089.91063 379446.571949 -242192.761589)
(-4902456.44754 -352567.165193 1992156.25272 -1413857.72283 219206.069825 -249790.890982)
(-4941738.54808 -89242.2318146 1988818.37325 -1395468.82825 88379.4148721 -257221.782411)
(1071205.64581 -41230.3396898 383693.051595 19342.024529 4630.17409425 -259050.246391)
(1044990.23121 -120090.016733 352083.334391 29854.3479614 -21119.5841944 -284744.463764)
(991011.033143 -188716.215909 607121.448713 52181.0503596 -85611.1980697 -271597.21588)
(890499.988173 -245265.704461 826104.609552 80526.5512665 -172081.952837 -274020.104493)
(794030.45149 -290069.9646 1003240.85316 117021.531245 -281064.698408 -273366.360176)
(683897.725768 -319506.061083 1151134.26102 158092.198128 -411041.611281 -272668.608099)
(576626.970748 -337000.414102 1249808.97925 204407.777101 -553169.264375 -271049.157205)
(475818.07331 -344288.303946 1292380.48142 256760.815557 -698812.731397 -267973.28677)
(387689.623381 -345289.442548 1269334.95572 319472.866882 -833615.088552 -262963.133708)
(312559.342832 -341370.303125 1174177.29879 397391.253503 -935662.490309 -255674.72986)
(250010.002346 -332189.432925 1011876.40123 498954.770272 -980445.363442 -245493.519378)
(192344.539669 -308321.287557 797860.454751 619550.519366 -935980.760608 -235013.466518)
(141032.826248 -260285.098125 568183.733625 756742.665171 -780161.420882 -220899.946874)
(92704.9788862 -178769.098874 379212.186194 869312.162889 -546191.317287 -220136.321416)
(71222.3137201 -42624.9805742 264211.663935 939749.209627 -78922.245822 -204407.904548)
(1048337.49225 -51582.0580107 357027.242899 26611.296643 205360.091274 -269165.78508)
(1001642.17473 -175362.056154 243801.550131 45786.6335255 204425.681363 -291483.855472)
(931501.589608 -270955.734551 437473.913293 85139.9311028 153237.680217 -278324.581839)
(805561.405102 -347623.013536 600158.107901 133726.834285 96221.8883078 -280904.348388)
(679143.355919 -401201.425149 735981.627123 193808.663997 22721.9384202 -280531.004143)
(538402.453806 -427948.083248 856562.954482 258019.856272 -64671.596249 -280851.124015)
(401556.631358 -431335.511446 945284.693276 325098.192139 -157989.310703 -281297.290898)
(274767.215031 -413325.538402 998159.319521 392717.236546 -250255.463298 -281715.440243)
(166324.764032 -378116.601368 1009844.28617 460880.655576 -329790.402457 -282045.015582)
(80486.3253541 -328785.683563 980287.90228 528038.135349 -382212.478646 -282202.088093)
(21150.844096 -269310.441509 918241.188521 593562.909935 -396139.998119 -281724.48157)
(-12870.9219565 -202662.981584 838737.899368 648294.756228 -362996.290273 -281660.485433)
(-21729.9146905 -135434.52406 760631.31831 691909.744941 -282777.854742 -278515.932248)
(-16509.5983965 -76471.0389664 708023.232949 714599.182741 -201311.987244 -281902.328491)
(-10514.1164174 -10078.8041419 678278.934214 720915.885757 27836.3684283 -274453.465736)