/*--------------------------------*- C++ -*----------------------------------*\
| =========                 |                                                 |
| \\      /  F ield         | foam-extend: Open Source CFD                    |
|  \\    /   O peration     | Version:     4.1                                |
|   \\  /    A nd           | Web:         http://www.foam-extend.org         |
|    \\/     M anipulation  |                                                 |
\*---------------------------------------------------------------------------*/
FoamFile
{
    version     2.0;
    format      ascii;
    class       vectorField;
    location    "1";
    object      solidsCellD_iteration17;
}
// * * * * * * * * * * * * * * * * * * * * * * * * * * * * * * * * * * * * * //


1050
(
(3.06531989339e-07 2.57657884362e-06 -5.3447841956e-05)
(8.41559534739e-07 2.51123886158e-06 -5.2997130336e-05)
(1.3790241777e-06 2.40182006572e-06 -5.20929709001e-05)
(1.87359706455e-06 2.24790482932e-06 -5.0819344477e-05)
(2.3295460444e-06 2.05786236122e-06 -4.92500700674e-05)
(2.73779504095e-06 1.84068004309e-06 -4.74633650093e-05)
(3.08832684915e-06 1.6076085687e-06 -4.55436303313e-05)
(3.37373006639e-06 1.37277008833e-06 -4.35883097399e-05)
(3.59608250377e-06 1.14874311977e-06 -4.17007119227e-05)
(3.76550849618e-06 9.42187221646e-07 -3.9972407573e-05)
(3.89443932306e-06 7.5404938732e-07 -3.84724557548e-05)
(3.99328230409e-06 5.80441310519e-07 -3.72481477948e-05)
(4.06789024807e-06 4.15406908173e-07 -3.63271139813e-05)
(4.12077641993e-06 2.50843597682e-07 -3.57206211945e-05)
(4.14612121271e-06 8.41634883972e-08 -3.54193536224e-05)
(3.23759742343e-07 2.82243914399e-06 -5.19950987911e-05)
(8.84585442519e-07 2.74623719674e-06 -5.15366312147e-05)
(1.44756538797e-06 2.61970021538e-06 -5.06153109651e-05)
(1.96093660733e-06 2.44260420983e-06 -4.93328998255e-05)
(2.43044990092e-06 2.22678281951e-06 -4.77621869691e-05)
(2.84629853217e-06 1.98513519685e-06 -4.59820399342e-05)
(3.19917016377e-06 1.73168497531e-06 -4.40776246732e-05)
(3.48400442096e-06 1.48193187812e-06 -4.21488751374e-05)
(3.70615355128e-06 1.24749355628e-06 -4.02988849797e-05)
(3.87819559951e-06 1.03274958943e-06 -3.86143175387e-05)
(4.01351879953e-06 8.36043496098e-07 -3.71574262642e-05)
(4.12202132687e-06 6.51077646301e-07 -3.59696807817e-05)
(4.20743573969e-06 4.70442696925e-07 -3.5074439647e-05)
(4.27022813593e-06 2.85778387006e-07 -3.44811083168e-05)
(4.30155438071e-06 9.77098449867e-08 -3.41798465842e-05)
(3.5508402797e-07 3.25006671344e-06 -4.99779546475e-05)
(9.54938436971e-07 3.17277782069e-06 -4.94982348495e-05)
(1.55573343158e-06 3.0245055962e-06 -4.85643677548e-05)
(2.10054017943e-06 2.81714068944e-06 -4.72800642853e-05)
(2.59406843553e-06 2.56623667494e-06 -4.57172312307e-05)
(3.02596656738e-06 2.28858811087e-06 -4.39535247092e-05)
(3.38791883828e-06 2.00124807504e-06 -4.2076929013e-05)
(3.67813070543e-06 1.7210104335e-06 -4.01892265264e-05)
(3.90546002309e-06 1.45849354965e-06 -3.83903209208e-05)
(4.0843368707e-06 1.2159955482e-06 -3.67596823541e-05)
(4.22806873162e-06 9.8995328787e-07 -3.53521511586e-05)
(4.34542506311e-06 7.73009256263e-07 -3.42036699864e-05)
(4.43839631437e-06 5.5819294477e-07 -3.33343123094e-05)
(4.50766559414e-06 3.37781709023e-07 -3.27544127685e-05)
(4.54143165223e-06 1.16192579838e-07 -3.2452684164e-05)
(3.90176562586e-07 3.90152642436e-06 -4.72149689097e-05)
(1.0370713952e-06 3.80943736427e-06 -4.67287105689e-05)
(1.6910735864e-06 3.63023390855e-06 -4.57994727923e-05)
(2.27735263932e-06 3.37993832636e-06 -4.45392516033e-05)
(2.8039232906e-06 3.07809152866e-06 -4.30134556764e-05)
(3.25914839828e-06 2.74632348713e-06 -4.12972873244e-05)
(3.63662670996e-06 2.40552535007e-06 -3.94795350033e-05)
(3.93812412724e-06 2.07423339026e-06 -3.7660936496e-05)
(4.17554701779e-06 1.76256667624e-06 -3.59358332144e-05)
(4.36443442439e-06 1.47159483093e-06 -3.43757045421e-05)
(4.51760882346e-06 1.1970084176e-06 -3.30284731363e-05)
(4.64293229374e-06 9.31552157822e-07 -3.19255884684e-05)
(4.74123583742e-06 6.69223920851e-07 -3.10843599988e-05)
(4.81394978274e-06 4.02494695018e-07 -3.05149021396e-05)
(4.85034968631e-06 1.3860947187e-07 -3.02080126299e-05)
(4.37942360856e-07 4.68435265438e-06 -4.35297941192e-05)
(1.14373647772e-06 4.57831228296e-06 -4.30436546385e-05)
(1.86074494795e-06 4.36391140614e-06 -4.21383223906e-05)
(2.49743308525e-06 4.06331391856e-06 -4.09285295398e-05)
(3.06321682964e-06 3.70088241654e-06 -3.94723074994e-05)
(3.54567503829e-06 3.30306139428e-06 -3.78403749071e-05)
(3.940800481e-06 2.89485429362e-06 -3.61197013905e-05)
(4.25398441071e-06 2.4967749154e-06 -3.44066654557e-05)
(4.49967299526e-06 2.11934924902e-06 -3.27874155691e-05)
(4.694030002e-06 1.76385541657e-06 -3.13244808769e-05)
(4.8495294955e-06 1.4267505564e-06 -3.00592122461e-05)
(4.97409753937e-06 1.10214221562e-06 -2.90197241028e-05)
(5.06908789051e-06 7.85377220172e-07 -2.82222699172e-05)
(5.13766955624e-06 4.6894701507e-07 -2.76756292921e-05)
(5.17162704668e-06 1.61499922013e-07 -2.73706111244e-05)
(4.90743797765e-07 5.52383954829e-06 -3.86478912374e-05)
(1.25908888225e-06 5.40003160404e-06 -3.81793918106e-05)
(2.04358161422e-06 5.14154010067e-06 -3.732731074e-05)
(2.73161911452e-06 4.7836647836e-06 -3.62096992341e-05)
(3.33541159139e-06 4.3524114958e-06 -3.48729123104e-05)
(3.84183806351e-06 3.8801730901e-06 -3.33815346983e-05)
(4.25001717906e-06 3.39555624415e-06 -3.18163090114e-05)
(4.56882074106e-06 2.92139259848e-06 -3.02645361346e-05)
(4.81481393413e-06 2.46954269082e-06 -2.88009664966e-05)
(5.00471469657e-06 2.04280068643e-06 -2.74783023242e-05)
(5.15134008125e-06 1.63935322346e-06 -2.6331558125e-05)
(5.26389175394e-06 1.25497009243e-06 -2.53855021734e-05)
(5.34573092756e-06 8.86254512881e-07 -2.46558367196e-05)
(5.4023873514e-06 5.25015734244e-07 -2.41505620746e-05)
(5.4293086212e-06 1.80668075035e-07 -2.38583853415e-05)
(5.4239455466e-07 6.23046923959e-06 -3.2351953593e-05)
(1.35763547996e-06 6.0849374436e-06 -3.19154077718e-05)
(2.19241557464e-06 5.78684467769e-06 -3.11638818009e-05)
(2.91819238242e-06 5.37477105567e-06 -3.01947559371e-05)
(3.544682713e-06 4.88094461213e-06 -2.90448801413e-05)
(4.06033772173e-06 4.34092382986e-06 -2.77666814527e-05)
(4.46716370751e-06 3.78698133322e-06 -2.64303955166e-05)
(4.77728213956e-06 3.24401270145e-06 -2.51093221556e-05)
(5.00890883541e-06 2.72588371103e-06 -2.38639789907e-05)
(5.17946685319e-06 2.23783532065e-06 -2.27369400188e-05)
(5.30295649898e-06 1.78024384748e-06 -2.17575331745e-05)
(5.39082860654e-06 1.35013140775e-06 -2.09463764319e-05)
(5.44916706953e-06 9.44849463709e-07 -2.03166576808e-05)
(5.48606551271e-06 5.55191495624e-07 -1.9875151768e-05)
(5.50106206565e-06 1.90918790665e-07 -1.96087717548e-05)
(5.65639449615e-07 6.5318429942e-06 -2.44917494006e-05)
(1.38444392349e-06 6.36422706072e-06 -2.41351005412e-05)
(2.22593723187e-06 6.03495979146e-06 -2.35293373493e-05)
(2.94580177674e-06 5.58943541347e-06 -2.27715209238e-05)
(3.55653081924e-06 5.05871308697e-06 -2.18788680084e-05)
(4.04723268455e-06 4.48170058299e-06 -2.0892219043e-05)
(4.42362780402e-06 3.89152818456e-06 -1.98655169645e-05)
(4.70018842005e-06 3.31405087987e-06 -1.88535339862e-05)
(4.89604003391e-06 2.76455520271e-06 -1.78995715882e-05)
(5.02918203939e-06 2.25054008678e-06 -1.70349401385e-05)
(5.11520619016e-06 1.77424823342e-06 -1.62830390559e-05)
(5.16786810976e-06 1.33318010425e-06 -1.56593694154e-05)
(5.19550250242e-06 9.2470279533e-07 -1.51724808348e-05)
(5.20742393457e-06 5.38876001716e-07 -1.4826790615e-05)
(5.20739085873e-06 1.85337713516e-07 -1.46085424049e-05)
(5.13466645036e-07 5.78842100691e-06 -1.52100193013e-05)
(1.21583347087e-06 5.62626429334e-06 -1.49571352402e-05)
(1.93979106402e-06 5.31427105332e-06 -1.45659687009e-05)
(2.55436606216e-06 4.90195243377e-06 -1.40859531513e-05)
(3.06311765922e-06 4.41613141189e-06 -1.35261024208e-05)
(3.46091332026e-06 3.89176880463e-06 -1.29093608471e-05)
(3.75485536134e-06 3.35880287557e-06 -1.22702350803e-05)
(3.95962765684e-06 2.84017517586e-06 -1.16418832087e-05)
(4.09290472521e-06 2.34999007745e-06 -1.1049438231e-05)
(4.17143815722e-06 1.89595178077e-06 -1.05119488414e-05)
(4.21057956152e-06 1.48083977207e-06 -1.0045054536e-05)
(4.22415707156e-06 1.10218964407e-06 -9.65803909625e-06)
(4.22061500642e-06 7.5774921474e-07 -9.35443372798e-06)
(4.20885863195e-06 4.38084223504e-07 -9.13759347182e-06)
(4.19520766383e-06 1.51215636566e-07 -8.99433472974e-06)
(3.01896934146e-07 3.37017944297e-06 -5.43617603899e-06)
(7.03933512612e-07 3.2505718875e-06 -5.33430692345e-06)
(1.11270204739e-06 3.05062763591e-06 -5.1917278679e-06)
(1.45308577386e-06 2.79190152356e-06 -5.01993609381e-06)
(1.72474430175e-06 2.49279510584e-06 -4.82056590013e-06)
(1.92616373371e-06 2.1743703825e-06 -4.60237024124e-06)
(2.06392485644e-06 1.8551654602e-06 -4.37813540366e-06)
(2.14861993209e-06 1.54913481594e-06 -4.15939275068e-06)
(2.19200796446e-06 1.26473269016e-06 -3.95410290268e-06)
(2.20528356691e-06 1.00645243349e-06 -3.7685915411e-06)
(2.19889811102e-06 7.75598012891e-07 -3.60861230708e-06)
(2.18196395587e-06 5.70061505804e-07 -3.47690832815e-06)
(2.16013204902e-06 3.87692892603e-07 -3.37386077971e-06)
(2.13783038823e-06 2.22898767162e-07 -3.30176227941e-06)
(2.12317873567e-06 7.79306093887e-08 -3.25192255633e-06)
(1.91718466601e-07 1.44849819447e-06 -5.36648344309e-05)
(5.39741918861e-07 1.41916570525e-06 -5.32209813829e-05)
(8.85057522766e-07 1.3609718528e-06 -5.23179595772e-05)
(1.20386393212e-06 1.27800203552e-06 -5.10466391349e-05)
(1.49883515536e-06 1.17394975955e-06 -4.94807640507e-05)
(1.76368236021e-06 1.05483226661e-06 -4.76970184795e-05)
(1.99222049644e-06 9.27088425634e-07 -4.57787001311e-05)
(2.18063170198e-06 7.98573003066e-07 -4.38233339976e-05)
(2.33113954925e-06 6.7593807605e-07 -4.19352213774e-05)
(2.45048471009e-06 5.62204112803e-07 -4.02063375238e-05)
(2.54630863797e-06 4.57121347425e-07 -3.87056510459e-05)
(2.62453884071e-06 3.57481983335e-07 -3.74804976563e-05)
(2.68705918908e-06 2.59279777622e-07 -3.65587105768e-05)
(2.73481199102e-06 1.57479145718e-07 -3.59535370183e-05)
(2.7655815126e-06 5.35350375993e-08 -3.5652295891e-05)
(2.02450593966e-07 1.59016167166e-06 -5.2197118855e-05)
(5.65983703661e-07 1.55264686646e-06 -5.17364735592e-05)
(9.26227093198e-07 1.48633139825e-06 -5.0814633699e-05)
(1.2564554826e-06 1.39040718227e-06 -4.95314611328e-05)
(1.55951582498e-06 1.27230581424e-06 -4.79596216156e-05)
(1.82871680009e-06 1.14013969009e-06 -4.61767763424e-05)
(2.0584469262e-06 1.00183142745e-06 -4.42678735167e-05)
(2.24642035103e-06 8.65823907936e-07 -4.23337524766e-05)
(2.39665523713e-06 7.37993085536e-07 -4.04787173206e-05)
(2.51705573217e-06 6.19914136354e-07 -3.87898652935e-05)
(2.61559154683e-06 5.09722969941e-07 -3.73295691379e-05)
(2.6977885315e-06 4.02834295872e-07 -3.6139346292e-05)
(2.76409230104e-06 2.94388329406e-07 -3.52422951073e-05)
(2.81508658185e-06 1.80201313589e-07 -3.46495037565e-05)
(2.84621157714e-06 6.18595435471e-08 -3.43482192731e-05)
(2.19716202457e-07 1.86009492541e-06 -5.02114583485e-05)
(6.06822326921e-07 1.82255407841e-06 -4.97299376121e-05)
(9.89596554263e-07 1.74154060546e-06 -4.87957650066e-05)
(1.33748767426e-06 1.62504569912e-06 -4.75095956807e-05)
(1.65343052668e-06 1.48313419222e-06 -4.59434655515e-05)
(1.93043003575e-06 1.32665001211e-06 -4.41739262561e-05)
(2.16389549124e-06 1.16570536299e-06 -4.22891778438e-05)
(2.35360233048e-06 1.00962063584e-06 -4.03924529155e-05)
(2.50550577913e-06 8.63607324138e-07 -3.8585155145e-05)
(2.62837059327e-06 7.27931273195e-07 -3.69473337646e-05)
(2.72996438072e-06 5.99533436178e-07 -3.55341423719e-05)
(2.81514675506e-06 4.7323894304e-07 -3.43815583546e-05)
(2.88320521155e-06 3.44418766785e-07 -3.35091076382e-05)
(2.93561262516e-06 2.09675785301e-07 -3.29274645251e-05)
(2.96502478332e-06 7.1322045535e-08 -3.26237565715e-05)
(2.41411211215e-07 2.29074500244e-06 -4.7476017887e-05)
(6.57831960658e-07 2.24404034242e-06 -4.69865348061e-05)
(1.07277088512e-06 2.14101136201e-06 -4.60566258908e-05)
(1.44568217235e-06 1.99444387698e-06 -4.47932813262e-05)
(1.78098507071e-06 1.81706862155e-06 -4.32626087235e-05)
(2.07109983906e-06 1.62316401575e-06 -4.15386572566e-05)
(2.31274526623e-06 1.42544641869e-06 -3.97107445156e-05)
(2.5078660211e-06 1.23444823744e-06 -3.78812233906e-05)
(2.66415672123e-06 1.05515838515e-06 -3.61458858554e-05)
(2.79095282291e-06 8.87170040008e-07 -3.45766915302e-05)
(2.89575426631e-06 7.27045165601e-07 -3.32219231941e-05)
(2.98305499319e-06 5.69743787627e-07 -3.21133341327e-05)
(3.05152088342e-06 4.11265280706e-07 -3.1268175614e-05)
(3.1037667096e-06 2.48339296619e-07 -3.06963292556e-05)
(3.1315782855e-06 8.37448271447e-08 -3.03871606115e-05)
(2.70330337039e-07 2.81670938738e-06 -4.37935406117e-05)
(7.24502329856e-07 2.75848529798e-06 -4.33050755035e-05)
(1.17871209756e-06 2.63018134741e-06 -4.23998696984e-05)
(1.58249990251e-06 2.44811721727e-06 -4.11866562781e-05)
(1.94126098733e-06 2.22851831119e-06 -3.9725392184e-05)
(2.24706630752e-06 1.98884850891e-06 -3.80853313417e-05)
(2.4982263046e-06 1.74460750333e-06 -3.63540689083e-05)
(2.69885157362e-06 1.50773868772e-06 -3.46294522827e-05)
(2.85807479162e-06 1.28367025474e-06 -3.29988531107e-05)
(2.98557425552e-06 1.07230847034e-06 -3.15252056094e-05)
(3.08877908939e-06 8.7085180773e-07 -3.02502803988e-05)
(3.17252461971e-06 6.75174917698e-07 -2.92028202098e-05)
(3.23598639118e-06 4.82121664615e-07 -2.83997812185e-05)
(3.28357778681e-06 2.88501402592e-07 -2.78497554264e-05)
(3.30687305419e-06 9.66505579938e-08 -2.75420687514e-05)
(3.02065439683e-07 3.37748024805e-06 -3.88923954037e-05)
(7.95850283567e-07 3.3064425475e-06 -3.84223000683e-05)
(1.29160760664e-06 3.14802092837e-06 -3.75716856952e-05)
(1.7264737163e-06 2.92655779684e-06 -3.64509290099e-05)
(2.10775584809e-06 2.659907618e-06 -3.51091811369e-05)
(2.42700649042e-06 2.36936691369e-06 -3.36093505532e-05)
(2.6845156077e-06 2.0728875254e-06 -3.20329620168e-05)
(2.88640742647e-06 1.78409771083e-06 -3.04685997574e-05)
(3.04304522059e-06 1.50954401376e-06 -2.89920817962e-05)
(3.16453069285e-06 1.25035689061e-06 -2.76566461298e-05)
(3.25879276837e-06 1.00504579439e-06 -2.64978962652e-05)
(3.33181325881e-06 7.70550114936e-07 -2.55412530342e-05)
(3.38411229713e-06 5.44372190027e-07 -2.4803406138e-05)
(3.42209853061e-06 3.22818624347e-07 -2.42923297714e-05)
(3.4381094201e-06 1.07547196276e-07 -2.39958711555e-05)
(3.31588388802e-07 3.83907430877e-06 -3.25376295312e-05)
(8.54337230256e-07 3.75402578497e-06 -3.20969714076e-05)
(1.37902621211e-06 3.56836253369e-06 -3.13448225283e-05)
(1.83468850683e-06 3.31075647234e-06 -3.03723320991e-05)
(2.22725467167e-06 3.00211532698e-06 -2.92170384567e-05)
(2.54923440615e-06 2.66619159324e-06 -2.79302170755e-05)
(2.80272424002e-06 2.32324792077e-06 -2.65827966112e-05)
(2.99574312858e-06 1.98848563212e-06 -2.52489803002e-05)
(3.13967577431e-06 1.66998747939e-06 -2.39900569408e-05)
(3.24524514514e-06 1.37062141121e-06 -2.28493199422e-05)
(3.32145778052e-06 1.09039607017e-06 -2.18570072348e-05)
(3.37601693548e-06 8.27012080943e-07 -2.1034340926e-05)
(3.41108073844e-06 5.78346168547e-07 -2.03954687877e-05)
(3.43493272789e-06 3.39809335554e-07 -1.99470346585e-05)
(3.44107690693e-06 1.1255578059e-07 -1.9675644369e-05)
(3.41203923295e-07 4.01083322004e-06 -2.45499889413e-05)
(8.60829508381e-07 3.91027790732e-06 -2.41863744959e-05)
(1.3834994295e-06 3.70518773145e-06 -2.35809727851e-05)
(1.82933665851e-06 3.42655356286e-06 -2.28199069348e-05)
(2.20596729501e-06 3.09522192283e-06 -2.19223987021e-05)
(2.5067188182e-06 2.73649637717e-06 -2.09282177972e-05)
(2.73578842447e-06 2.37131152371e-06 -1.98918984568e-05)
(2.90265014902e-06 2.01558592617e-06 -1.88687101634e-05)
(3.01932109159e-06 1.67850620605e-06 -1.79024247879e-05)
(3.09709473642e-06 1.36439230172e-06 -1.70251215373e-05)
(3.14615690567e-06 1.07434074914e-06 -1.62612453966e-05)
(3.17566323592e-06 8.06271136309e-07 -1.56267408509e-05)
(3.18903658005e-06 5.58146834403e-07 -1.51310479697e-05)
(3.19525541543e-06 3.24901981677e-07 -1.47783429128e-05)
(3.18979317991e-06 1.06948274463e-07 -1.45554355231e-05)
(3.0021353527e-07 3.49362416835e-06 -1.50551248143e-05)
(7.40376587468e-07 3.39364984288e-06 -1.47968482058e-05)
(1.18025159096e-06 3.20146427882e-06 -1.44073370757e-05)
(1.55138279769e-06 2.94716774512e-06 -1.39263524433e-05)
(1.85677740424e-06 2.64830987985e-06 -1.33647299962e-05)
(2.09297270306e-06 2.32742891111e-06 -1.27444258502e-05)
(2.26515763823e-06 2.00295939417e-06 -1.21000771523e-05)
(2.38267878439e-06 1.68890681195e-06 -1.14648883091e-05)
(2.45664308491e-06 1.39370142201e-06 -1.08642106067e-05)
(2.49759389954e-06 1.12172774403e-06 -1.03177446831e-05)
(2.51538193401e-06 8.74285900536e-07 -9.84193864047e-06)
(2.51885213251e-06 6.49242066387e-07 -9.44629498981e-06)
(2.5114783823e-06 4.45229477272e-07 -9.13534006314e-06)
(2.50185156973e-06 2.57097356063e-07 -8.9124333031e-06)
(2.48724936791e-06 8.38598572358e-08 -8.76562971717e-06)
(1.46958769021e-07 1.76775774989e-06 -4.94972034969e-06)
(3.71605564098e-07 1.70026312967e-06 -4.8510499118e-06)
(5.85902582366e-07 1.5905929987e-06 -4.71448698918e-06)
(7.62656055352e-07 1.44909957028e-06 -4.54955609714e-06)
(9.01486100057e-07 1.28659755387e-06 -4.35788188804e-06)
(1.00175257221e-06 1.11521757668e-06 -4.14735275365e-06)
(1.06740407274e-06 9.45146077888e-07 -3.93003971958e-06)
(1.10462340289e-06 7.83877208468e-07 -3.71690689797e-06)
(1.12020064842e-06 6.35798922714e-07 -3.5157340765e-06)
(1.12057910323e-06 5.02993644279e-07 -3.33303609663e-06)
(1.11161996775e-06 3.85673369513e-07 -3.1747299881e-06)
(1.09832957452e-06 2.82107059e-07 -3.04350003098e-06)
(1.08299244197e-06 1.91052137998e-07 -2.94052597143e-06)
(1.0686114932e-06 1.09466531504e-07 -2.86766747144e-06)
(1.05858879439e-06 3.4173224061e-08 -2.81684476696e-06)
(7.54412128828e-08 1.16757076399e-07 -5.38674157418e-05)
(2.1479742347e-07 1.0670922855e-07 -5.34255295559e-05)
(3.52782122806e-07 9.89440209707e-08 -5.25243979591e-05)
(4.78882302661e-07 8.42764001703e-08 -5.12556535818e-05)
(5.95584984066e-07 6.3486843123e-08 -4.96922038495e-05)
(7.00075737543e-07 4.03945460898e-08 -4.79102156444e-05)
(7.89696621368e-07 1.77212170213e-08 -4.59928652424e-05)
(8.63221411023e-07 -1.26744811599e-09 -4.40379109511e-05)
(9.22332215205e-07 -1.39643865707e-08 -4.21497424172e-05)
(9.70603143778e-07 -1.94415950485e-08 -4.04200324335e-05)
(1.01170965991e-06 -1.82070805883e-08 -3.89176487572e-05)
(1.04834915496e-06 -1.26355049971e-08 -3.76901878727e-05)
(1.0797186844e-06 -5.84838587452e-09 -3.67654074276e-05)
(1.10362216218e-06 -2.30149294851e-09 -3.61577668119e-05)
(1.11985348692e-06 -8.99612441847e-10 -3.58544529163e-05)
(8.07339591998e-08 2.3181335974e-07 -5.23698300484e-05)
(2.26372283304e-07 2.19151951346e-07 -5.19081845791e-05)
(3.71148390953e-07 2.10227976569e-07 -5.0986466824e-05)
(5.03926922088e-07 1.90308059424e-07 -4.97030021449e-05)
(6.26068143664e-07 1.63993793242e-07 -4.81303902651e-05)
(7.34561170309e-07 1.35771790544e-07 -4.63458957511e-05)
(8.27087676625e-07 1.08939633968e-07 -4.44349686245e-05)
(9.03357915155e-07 8.6858075378e-08 -4.24990356638e-05)
(9.66072850364e-07 7.14359228828e-08 -4.06424744462e-05)
(1.0194503468e-06 6.24412946558e-08 -3.89519500801e-05)
(1.06730346417e-06 5.78501244473e-08 -3.74897443582e-05)
(1.11185463906e-06 5.38144066491e-08 -3.62975812208e-05)
(1.15060610788e-06 4.60589065659e-08 -3.53982909905e-05)
(1.18018144119e-06 3.11166502984e-08 -3.48030126195e-05)
(1.19799163783e-06 1.16786127516e-08 -3.44984886317e-05)
(8.81802191763e-08 4.10321725843e-07 -5.03885313802e-05)
(2.44997747377e-07 4.01410768557e-07 -4.99065991317e-05)
(4.01262855217e-07 3.85291465424e-07 -4.89710965162e-05)
(5.4315428084e-07 3.55332682253e-07 -4.76824104966e-05)
(6.72491275712e-07 3.17328638567e-07 -4.61129820812e-05)
(7.86018513409e-07 2.76941654738e-07 -4.43390068635e-05)
(8.82202367873e-07 2.38499487679e-07 -4.24494050525e-05)
(9.61855005317e-07 2.05569612036e-07 -4.0548189278e-05)
(1.02853701545e-06 1.79351625483e-07 -3.87369772692e-05)
(1.08660386653e-06 1.58531245098e-07 -3.70955382381e-05)
(1.1393590239e-06 1.40090368287e-07 -3.56791076894e-05)
(1.18822747199e-06 1.19801752933e-07 -3.45238546634e-05)
(1.22963738633e-06 9.37162838899e-08 -3.36492494692e-05)
(1.26108372867e-06 5.97283718323e-08 -3.306597738e-05)
(1.27910445937e-06 2.09498107782e-08 -3.27597108302e-05)
(9.86668956969e-08 6.80360784853e-07 -4.76705167896e-05)
(2.70033265679e-07 6.67899382872e-07 -4.71822576536e-05)
(4.42581455294e-07 6.39677302334e-07 -4.6249993145e-05)
(5.97943330404e-07 5.93713041827e-07 -4.49831572992e-05)
(7.38232193542e-07 5.36714971458e-07 -4.34478982265e-05)
(8.60029071591e-07 4.76053155278e-07 -4.17178695652e-05)
(9.62493438376e-07 4.17206094859e-07 -3.98831482952e-05)
(1.04742813066e-06 3.64110692351e-07 -3.8046931637e-05)
(1.11901167566e-06 3.17576626225e-07 -3.63053397021e-05)
(1.18152285647e-06 2.75746081413e-07 -3.47302282947e-05)
(1.23777843481e-06 2.35388239946e-07 -3.33701552159e-05)
(1.28876638582e-06 1.92608141348e-07 -3.22572104105e-05)
(1.33036909809e-06 1.4431191445e-07 -3.14087543745e-05)
(1.36136782727e-06 8.92383602262e-08 -3.08349263452e-05)
(1.37863938833e-06 3.03646827815e-08 -3.0522807914e-05)
(1.13246341702e-07 1.00159366086e-06 -4.39957831582e-05)
(3.04872209814e-07 9.81970297872e-07 -4.35058609653e-05)
(4.98431648964e-07 9.39323729744e-07 -4.25980697213e-05)
(6.7092765464e-07 8.73683555024e-07 -4.13811402158e-05)
(8.24717693478e-07 7.93375457497e-07 -3.99149913634e-05)
(9.56334659873e-07 7.07217532847e-07 -3.82684714284e-05)
(1.06572891014e-06 6.2192765794e-07 -3.65298621836e-05)
(1.15560336426e-06 5.41972716634e-07 -3.47977050144e-05)
(1.23053698026e-06 4.68268319867e-07 -3.31596537399e-05)
(1.29463588061e-06 3.99150466408e-07 -3.16786701318e-05)
(1.35048039593e-06 3.31954252788e-07 -3.03969723039e-05)
(1.39925276698e-06 2.63636682635e-07 -2.93437686844e-05)
(1.43710077099e-06 1.91983222901e-07 -2.85361973002e-05)
(1.46479079115e-06 1.16349996649e-07 -2.79833080642e-05)
(1.47963596049e-06 3.89662470884e-08 -2.76719425135e-05)
(1.29475863528e-07 1.34025550599e-06 -3.90788500014e-05)
(3.43008113103e-07 1.31317587303e-06 -3.860712264e-05)
(5.59437208998e-07 1.25375096921e-06 -3.77554890775e-05)
(7.49696427226e-07 1.16600787138e-06 -3.66316386199e-05)
(9.17045863803e-07 1.05938951945e-06 -3.52853602675e-05)
(1.05770851153e-06 9.44371358897e-07 -3.37792052193e-05)
(1.17252183712e-06 8.28841982983e-07 -3.21953757369e-05)
(1.26490851533e-06 7.18051737062e-07 -3.06230275446e-05)
(1.33974727045e-06 6.13575075879e-07 -2.91382738852e-05)
(1.40114421318e-06 5.14615308057e-07 -2.77945859289e-05)
(1.4519758046e-06 4.1955434038e-07 -2.66282065975e-05)
(1.49428539202e-06 3.26235795034e-07 -2.56651011124e-05)
(1.52500754391e-06 2.33001568743e-07 -2.49221720383e-05)
(1.54701077674e-06 1.39155633991e-07 -2.44078566216e-05)
(1.55812368101e-06 4.61294415574e-08 -2.41077290426e-05)
(1.44797930538e-07 1.62549027761e-06 -3.26856806012e-05)
(3.76391815022e-07 1.5918560733e-06 -3.22433178892e-05)
(6.09798435932e-07 1.51631939098e-06 -3.14898389881e-05)
(8.12947054702e-07 1.40806191666e-06 -3.05145421699e-05)
(9.88444321082e-07 1.27719517484e-06 -2.93550502475e-05)
(1.13282167551e-06 1.1356545799e-06 -2.8062412166e-05)
(1.24769895768e-06 9.92327103226e-07 -2.67080713641e-05)
(1.33712339833e-06 8.53382969509e-07 -2.53666122877e-05)
(1.40624057218e-06 7.21397581314e-07 -2.4099594059e-05)
(1.45941345992e-06 5.96759535026e-07 -2.29507238394e-05)
(1.5002809939e-06 4.78922410535e-07 -2.19509366994e-05)
(1.53214039142e-06 3.66325300994e-07 -2.11218453061e-05)
(1.55280617585e-06 2.57686601184e-07 -2.04778221778e-05)
(1.56722319925e-06 1.51875300347e-07 -2.00260078547e-05)
(1.57321711465e-06 4.98593477391e-08 -1.97508548719e-05)
(1.50996955137e-07 1.75893264183e-06 -2.46311432973e-05)
(3.84292936678e-07 1.71753538991e-06 -2.42649750361e-05)
(6.20114369028e-07 1.63040078281e-06 -2.36588520216e-05)
(8.21352057886e-07 1.50898985489e-06 -2.28957599239e-05)
(9.91462955527e-07 1.36385375364e-06 -2.19951606718e-05)
(1.12759314423e-06 1.2071877238e-06 -2.09966271311e-05)
(1.23205990001e-06 1.04838885368e-06 -1.99549729687e-05)
(1.30947162035e-06 8.94143840006e-07 -1.89256432588e-05)
(1.36517441542e-06 7.47935175393e-07 -1.79526616043e-05)
(1.40392042542e-06 6.11153156268e-07 -1.70686325528e-05)
(1.43019483374e-06 4.83958431535e-07 -1.62985174917e-05)
(1.44823581295e-06 3.64980531321e-07 -1.56582450965e-05)
(1.45659462785e-06 2.5321459423e-07 -1.51576093353e-05)
(1.46152781271e-06 1.47591400951e-07 -1.48013607047e-05)
(1.4611359229e-06 4.80850620854e-08 -1.45750271191e-05)
(1.33398224229e-07 1.55870729091e-06 -1.50240472034e-05)
(3.34289440487e-07 1.5149311889e-06 -1.47637063714e-05)
(5.34465962138e-07 1.4309318285e-06 -1.43746401917e-05)
(7.02767008295e-07 1.31801590909e-06 -1.38931891897e-05)
(8.41321183185e-07 1.18487624132e-06 -1.333086273e-05)
(9.48288493765e-07 1.04237055246e-06 -1.27091131591e-05)
(1.02663783792e-06 8.98616488525e-07 -1.20626492216e-05)
(1.08070583258e-06 7.59661365464e-07 -1.14246150688e-05)
(1.11546511753e-06 6.28954138494e-07 -1.08205343606e-05)
(1.13551915429e-06 5.08171513812e-07 -1.02705515343e-05)
(1.14534826486e-06 3.976916388e-07 -9.79129907805e-06)
(1.14908007472e-06 2.96090246452e-07 -9.39201460066e-06)
(1.14566655737e-06 2.03330400022e-07 -9.07799659615e-06)
(1.14259659827e-06 1.17541724413e-07 -8.8531566666e-06)
(1.13609795987e-06 3.77828484976e-08 -8.70382788114e-06)
(6.14371464894e-08 7.5438102416e-07 -4.81025976261e-06)
(1.6025819967e-07 7.24747539488e-07 -4.71373416797e-06)
(2.5301856831e-07 6.77947322594e-07 -4.57894216106e-06)
(3.29475975451e-07 6.17031470391e-07 -4.41699379042e-06)
(3.89186616097e-07 5.47170248891e-07 -4.22857559577e-06)
(4.32052186244e-07 4.73881203533e-07 -4.02133165855e-06)
(4.59924737429e-07 4.01509209233e-07 -3.80701749156e-06)
(4.75618797195e-07 3.33163126648e-07 -3.59636911702e-06)
(4.82117560052e-07 2.70609041168e-07 -3.3971674451e-06)
(4.82248510828e-07 2.14591125052e-07 -3.21608610413e-06)
(4.78552499509e-07 1.65030854031e-07 -3.05897186524e-06)
(4.73239908201e-07 1.20898928432e-07 -2.92835777325e-06)
(4.66348185557e-07 8.20161172429e-08 -2.82624617848e-06)
(4.60415405744e-07 4.70257470617e-08 -2.75369854119e-06)
(4.5575198148e-07 1.43407381443e-08 -2.70295894809e-06)
(-3.79137605088e-08 -1.39089496732e-06 -5.40679788359e-05)
(-1.11498526519e-07 -1.36854895191e-06 -5.36249898391e-05)
(-1.84033273436e-07 -1.32406038854e-06 -5.27250867051e-05)
(-2.54679490626e-07 -1.26732867281e-06 -5.1458075692e-05)
(-3.20553479207e-07 -1.20052762382e-06 -4.98963873479e-05)
(-3.8122953408e-07 -1.12197926731e-06 -4.81153324442e-05)
(-4.36547530564e-07 -1.0323792423e-06 -4.61978562348e-05)
(-4.860360274e-07 -9.32609582771e-07 -4.42421442514e-05)
(-5.28679721704e-07 -8.2367913142e-07 -4.23528421082e-05)
(-5.63281698473e-07 -7.0660653157e-07 -4.06213470435e-05)
(-5.88851745693e-07 -5.82363065927e-07 -3.91164602809e-05)
(-6.0444793436e-07 -4.52906280116e-07 -3.78862732566e-05)
(-6.11269282763e-07 -3.2090651424e-07 -3.69588155544e-05)
(-6.13214276429e-07 -1.90989709501e-07 -3.63485696787e-05)
(-6.15496455785e-07 -6.4447182354e-08 -3.60424024295e-05)
(-4.01692525218e-08 -1.26425369529e-06 -5.25526589226e-05)
(-1.18775811085e-07 -1.24429843437e-06 -5.20933361268e-05)
(-1.93050844389e-07 -1.19596042782e-06 -5.11719603334e-05)
(-2.62362899712e-07 -1.13872481369e-06 -4.98893228798e-05)
(-3.25655743394e-07 -1.07132266271e-06 -4.83172981983e-05)
(-3.8247184338e-07 -9.92499805859e-07 -4.65323690631e-05)
(-4.32469534067e-07 -9.0313618351e-07 -4.46202166913e-05)
(-4.74748163111e-07 -8.0430664672e-07 -4.26828628609e-05)
(-5.0797224448e-07 -6.97560361463e-07 -4.08247815082e-05)
(-5.30881399875e-07 -5.84891897124e-07 -3.91321802153e-05)
(-5.42751859532e-07 -4.68886493204e-07 -3.76673135099e-05)
(-5.43512622508e-07 -3.53364498903e-07 -3.64724371521e-05)
(-5.36580581692e-07 -2.42638110671e-07 -3.5570814278e-05)
(-5.27906864724e-07 -1.40864309005e-07 -3.49737135979e-05)
(-5.24753900509e-07 -4.56794046196e-08 -3.46669697249e-05)
(-4.06019533207e-08 -1.14392094035e-06 -5.05770680864e-05)
(-1.19415545408e-07 -1.11735633439e-06 -5.00945235085e-05)
(-1.91702168044e-07 -1.06837690795e-06 -4.91580480058e-05)
(-2.58108271868e-07 -1.0106755612e-06 -4.7868848172e-05)
(-3.1757579481e-07 -9.43184102145e-07 -4.62985075477e-05)
(-3.69720495096e-07 -8.65096458774e-07 -4.45226176551e-05)
(-4.13748641164e-07 -7.77474852355e-07 -4.26305002092e-05)
(-4.48447686476e-07 -6.81817079281e-07 -4.0726779096e-05)
(-4.72509541526e-07 -5.80444274104e-07 -3.89131208683e-05)
(-4.85216603588e-07 -4.76301268916e-07 -3.72688787033e-05)
(-4.86824718334e-07 -3.72859815419e-07 -3.58493839001e-05)
(-4.78547012218e-07 -2.74208006471e-07 -3.46912661237e-05)
(-4.65381480567e-07 -1.84168213564e-07 -3.38143078321e-05)
(-4.53179109679e-07 -1.04972079783e-07 -3.32291608789e-05)
(-4.4851204883e-07 -3.37061596104e-08 -3.29212757874e-05)
(-4.02441506451e-08 -1.00027293813e-06 -4.78644584803e-05)
(-1.18317650405e-07 -9.73932328953e-07 -4.73755955232e-05)
(-1.87625679203e-07 -9.26576678926e-07 -4.64420421851e-05)
(-2.49714755861e-07 -8.70751935542e-07 -4.51736367336e-05)
(-3.04064099706e-07 -8.05920442036e-07 -4.36363015515e-05)
(-3.50111251004e-07 -7.31506780978e-07 -4.19032391227e-05)
(-3.86934240392e-07 -6.48907558454e-07 -4.00650431425e-05)
(-4.13330324576e-07 -5.60139581836e-07 -3.82255007907e-05)
(-4.28407820999e-07 -4.68173199599e-07 -3.64807434578e-05)
(-4.32295639055e-07 -3.76467695079e-07 -3.49022735912e-05)
(-4.26263529465e-07 -2.88572775416e-07 -3.35388246746e-05)
(-4.12415042502e-07 -2.07954601684e-07 -3.24228960699e-05)
(-3.9662588631e-07 -1.3722563275e-07 -3.1572054164e-05)
(-3.841272498e-07 -7.6996839429e-08 -3.0996572862e-05)
(-3.79243695433e-07 -2.4582492918e-08 -3.06837072735e-05)
(-3.81544130575e-08 -8.53503081171e-07 -4.41916238158e-05)
(-1.11806549552e-07 -8.29918111735e-07 -4.37007444712e-05)
(-1.75583337707e-07 -7.85507489311e-07 -4.27911862613e-05)