/*--------------------------------*- C++ -*----------------------------------*\
| =========                 |                                                 |
| \\      /  F ield         | foam-extend: Open Source CFD                    |
|  \\    /   O peration     | Version:     4.1                                |
|   \\  /    A nd           | Web:         http://www.foam-extend.org         |
|    \\/     M anipulation  |                                                 |
\*---------------------------------------------------------------------------*/
FoamFile
{
    version     2.0;
    format      ascii;
    class       vectorField;
    location    "1";
    object      solidsCellD_iteration19;
}
// * * * * * * * * * * * * * * * * * * * * * * * * * * * * * * * * * * * * * //


1050
(
(3.49667839998e-07 3.13395909489e-06 -5.74528500829e-05)
(9.58788880613e-07 3.06125185032e-06 -5.69702287681e-05)
(1.57667013968e-06 2.93520753035e-06 -5.59801106372e-05)
(2.14227747761e-06 2.7565167069e-06 -5.45832811449e-05)
(2.66207185778e-06 2.5352846462e-06 -5.28616596515e-05)
(3.12563981698e-06 2.28207894473e-06 -5.09052993223e-05)
(3.52391097404e-06 2.0091559125e-06 -4.88091439194e-05)
(3.85006638403e-06 1.73131607007e-06 -4.66784440437e-05)
(4.10646879716e-06 1.4618438229e-06 -4.46227630141e-05)
(4.30348187079e-06 1.20820272333e-06 -4.27394177893e-05)
(4.453881253e-06 9.71985290611e-07 -4.11029153872e-05)
(4.5686719505e-06 7.49588435904e-07 -3.97649850734e-05)
(4.65429168996e-06 5.35818600393e-07 -3.87562230318e-05)
(4.71383523195e-06 3.22495862799e-07 -3.80902341621e-05)
(4.74276252054e-06 1.08417700594e-07 -3.77576656823e-05)
(3.70683347587e-07 3.38522592415e-06 -5.5773951522e-05)
(1.0090602791e-06 3.29932365937e-06 -5.52714830793e-05)
(1.65397941007e-06 3.15407868891e-06 -5.42633777362e-05)
(2.23988237677e-06 2.94968666706e-06 -5.28574366284e-05)
(2.7738097296e-06 2.69996460362e-06 -5.11364750501e-05)
(3.24486898895e-06 2.41973694077e-06 -4.91914340573e-05)
(3.64473734105e-06 2.12415813984e-06 -4.7117470269e-05)
(3.96895383124e-06 1.82952104101e-06 -4.50213826242e-05)
(4.22326956791e-06 1.54826880169e-06 -4.30118227481e-05)
(4.42064118326e-06 1.28572847742e-06 -4.11805613643e-05)
(4.57495124385e-06 1.04105185074e-06 -3.9594808631e-05)
(4.69690066306e-06 8.08386296608e-07 -3.82998805177e-05)
(4.79103964544e-06 5.81245765036e-07 -3.73215041682e-05)
(4.85881673115e-06 3.50962245505e-07 -3.66711484303e-05)
(4.89276200508e-06 1.19606392804e-07 -3.63374377613e-05)
(4.04644788559e-07 3.82573162351e-06 -5.34680101785e-05)
(1.08446383231e-06 3.73593908937e-06 -5.29540736758e-05)
(1.7700144334e-06 3.56614642433e-06 -5.19317576883e-05)
(2.38826989257e-06 3.32819376614e-06 -5.05261794429e-05)
(2.94629609033e-06 3.03996485787e-06 -4.88180558124e-05)
(3.4328047625e-06 2.72058810564e-06 -4.68965464282e-05)
(3.84058130924e-06 2.38847760226e-06 -4.48586172291e-05)
(4.16848047034e-06 2.06136023459e-06 -4.28124282399e-05)
(4.42591694153e-06 1.7507457967e-06 -4.08630483457e-05)
(4.6278640025e-06 1.45992954911e-06 -3.90944910809e-05)
(4.7883208083e-06 1.18619231809e-06 -3.75660658711e-05)
(4.91704818805e-06 9.22546410881e-07 -3.63170061595e-05)
(5.01700725494e-06 6.62940951385e-07 -3.53694582581e-05)
(5.0901239757e-06 3.99011414313e-07 -3.47363521197e-05)
(5.12573324759e-06 1.36849385007e-07 -3.44039952366e-05)
(4.43312039696e-07 4.49861714798e-06 -5.03839011089e-05)
(1.17191859878e-06 4.39325044567e-06 -4.98537891349e-05)
(1.91216760524e-06 4.18904924252e-06 -4.883669006e-05)
(2.57228792283e-06 3.90425422398e-06 -4.74594163571e-05)
(3.16302410037e-06 3.56097812241e-06 -4.57962616621e-05)
(3.67194380857e-06 3.18363389498e-06 -4.39325443897e-05)
(4.09380014822e-06 2.79467983681e-06 -4.19648672654e-05)
(4.43110675108e-06 2.41378158805e-06 -3.99997064155e-05)
(4.69651400147e-06 2.05203300398e-06 -3.81359557883e-05)
(4.90626521569e-06 1.711536186e-06 -3.6448942853e-05)
(5.07405478405e-06 1.38884597166e-06 -3.4990559097e-05)
(5.20888007174e-06 1.07692231104e-06 -3.37951119936e-05)
(5.31266850254e-06 7.70587713911e-07 -3.28814160148e-05)
(5.38827000683e-06 4.6140334436e-07 -3.22619512152e-05)
(5.42615434177e-06 1.58577620836e-07 -3.19255710456e-05)
(4.9424943797e-07 5.30714953951e-06 -4.63084022236e-05)
(1.28218168899e-06 5.18568060769e-06 -4.57834310955e-05)
(2.08678590259e-06 4.9419128376e-06 -4.47956569985e-05)
(2.79719594204e-06 4.60239877598e-06 -4.34777527467e-05)
(3.42627890276e-06 4.19409990318e-06 -4.18961683361e-05)
(3.96097598814e-06 3.74658629321e-06 -4.01302300708e-05)
(4.39846503513e-06 3.2866532984e-06 -3.82736829905e-05)
(4.74503144268e-06 2.83613636969e-06 -3.64281213296e-05)
(5.01604669406e-06 2.40660295851e-06 -3.46837596785e-05)
(5.22852998055e-06 2.00034840979e-06 -3.3106461401e-05)
(5.39603004385e-06 1.61471265906e-06 -3.17411510116e-05)
(5.52779871472e-06 1.24389158677e-06 -3.06186285476e-05)
(5.6263847159e-06 8.83837011276e-07 -2.97560551403e-05)
(5.69644033599e-06 5.25816520085e-07 -2.91635957734e-05)
(5.73128479527e-06 1.80872799085e-07 -2.88301484238e-05)
(5.5026126146e-07 6.16527125147e-06 -4.09739473182e-05)
(1.39929311704e-06 6.02356207128e-06 -4.04640003561e-05)
(2.27131622671e-06 5.73347771898e-06 -3.95391584725e-05)
(3.0320203798e-06 5.33266345433e-06 -3.83258080114e-05)
(3.69732725813e-06 4.85145592086e-06 -3.68791122674e-05)
(4.25352578093e-06 4.32558641162e-06 -3.52708646993e-05)
(4.70098413177e-06 3.78580087526e-06 -3.35875322383e-05)
(5.04967450936e-06 3.25655830457e-06 -3.19210340854e-05)
(5.31730437542e-06 2.75089633066e-06 -3.03496628544e-05)
(5.5216637158e-06 2.27257129218e-06 -2.89289490353e-05)
(5.67694044751e-06 1.82061320549e-06 -2.76967894638e-05)
(5.79396186487e-06 1.39083806661e-06 -2.66803357077e-05)
(5.87739503155e-06 9.80235197079e-07 -2.58960820655e-05)
(5.9341007855e-06 5.78943173114e-07 -2.53524690492e-05)
(5.96130640774e-06 1.99133491356e-07 -2.50354455703e-05)
(6.03150036048e-07 6.86716950057e-06 -3.41501450691e-05)
(1.49517066173e-06 6.70317520108e-06 -3.36839849871e-05)
(2.41471203047e-06 6.37080862517e-06 -3.28667124152e-05)
(3.20919608614e-06 5.91382862349e-06 -3.18196667496e-05)
(3.89321824162e-06 5.36773249323e-06 -3.05807110208e-05)
(4.4542897168e-06 4.77211330179e-06 -2.92085724313e-05)
(4.89574215074e-06 4.16154718234e-06 -2.77778807462e-05)
(5.2309771043e-06 3.5628083206e-06 -2.63654812898e-05)
(5.479529253e-06 2.99111605621e-06 -2.503472756e-05)
(5.66013626337e-06 2.45256983194e-06 -2.383063024e-05)
(5.78843010864e-06 1.94816518148e-06 -2.27844355137e-05)
(5.87767823866e-06 1.47493446804e-06 -2.19180673954e-05)
(5.93530663913e-06 1.03055429347e-06 -2.12453078641e-05)
(5.97054319608e-06 6.03882298464e-07 -2.077310843e-05)
(5.98483366304e-06 2.07661414437e-07 -2.04852273252e-05)
(6.25104495659e-07 7.1201272733e-06 -2.57156266794e-05)
(1.51092865365e-06 6.93447576301e-06 -2.53281998597e-05)
(2.42810975689e-06 6.57080235244e-06 -2.46801989194e-05)
(3.20914245513e-06 6.08074161604e-06 -2.38648832838e-05)
(3.86973986781e-06 5.49899422235e-06 -2.29091116526e-05)
(4.3986009295e-06 4.86820193065e-06 -2.18557385245e-05)
(4.80274503672e-06 4.22397841663e-06 -2.07622907876e-05)
(5.0980956289e-06 3.59410625676e-06 -1.96860314107e-05)
(5.30524073393e-06 2.9952666169e-06 -1.86723450156e-05)
(5.4437192528e-06 2.43564643097e-06 -1.77546650223e-05)
(5.53083204248e-06 1.91771575729e-06 -1.69574604163e-05)
(5.58197969399e-06 1.43885120808e-06 -1.62962112632e-05)
(5.60668352841e-06 9.96716806477e-07 -1.57796290743e-05)
(5.61522112303e-06 5.79485243006e-07 -1.54124052654e-05)
(5.61337830557e-06 1.99434613405e-07 -1.5178033425e-05)
(5.61623886801e-07 6.23207613781e-06 -1.58494525932e-05)
(1.3115472313e-06 6.05430816829e-06 -1.55835787063e-05)
(2.09146596565e-06 5.71463956235e-06 -1.51606503518e-05)
(2.74998092947e-06 5.26669290595e-06 -1.46498984063e-05)
(3.29416752934e-06 4.7402913496e-06 -1.40548851939e-05)
(3.7179947233e-06 4.17363071707e-06 -1.34018911492e-05)
(4.02982582089e-06 3.59865049176e-06 -1.27269404745e-05)
(4.24559812707e-06 3.03987977072e-06 -1.20642113993e-05)
(4.38427512958e-06 2.51261876411e-06 -1.14399232189e-05)
(4.46408564353e-06 2.02507412448e-06 -1.08747007706e-05)
(4.5018026211e-06 1.57996528918e-06 -1.03847466482e-05)
(4.51239002256e-06 1.17459247435e-06 -9.97881761004e-06)
(4.50514046093e-06 8.06811061923e-07 -9.66048461499e-06)
(4.48975787739e-06 4.65576213563e-07 -9.43326856182e-06)
(4.47416103582e-06 1.60944683261e-07 -9.28145478664e-06)
(3.25987493918e-07 3.5734892062e-06 -5.65084129854e-06)
(7.48417734788e-07 3.44550431069e-06 -5.54020407435e-06)
(1.18162601434e-06 3.23056702796e-06 -5.38914257376e-06)
(1.54120802318e-06 2.95379350375e-06 -5.20624806752e-06)
(1.82737223178e-06 2.63462479869e-06 -4.99518068827e-06)
(2.03871823593e-06 2.29580624372e-06 -4.76498399359e-06)
(2.18252764867e-06 1.95685689399e-06 -4.52916394973e-06)
(2.27010520319e-06 1.63240330973e-06 -4.29951106718e-06)
(2.31394465112e-06 1.33142642985e-06 -4.08428774322e-06)
(2.32615401825e-06 1.05863480815e-06 -3.89043669521e-06)
(2.31791301813e-06 8.15166044718e-07 -3.72381548679e-06)
(2.29874339535e-06 5.98723381712e-07 -3.5867816244e-06)
(2.2747076019e-06 4.06956114789e-07 -3.47991323907e-06)
(2.25047432113e-06 2.33688826326e-07 -3.4051650395e-06)
(2.23473800774e-06 8.19886795613e-08 -3.35340817829e-06)
(2.19627997151e-07 1.826409221e-06 -5.76863028876e-05)
(6.18864730855e-07 1.79240824362e-06 -5.72126150844e-05)
(1.01788021701e-06 1.72350356303e-06 -5.62236061993e-05)
(1.3841856068e-06 1.62444801857e-06 -5.48286338197e-05)
(1.722076071e-06 1.49995691906e-06 -5.31100460989e-05)
(2.02438019323e-06 1.35706456655e-06 -5.11564095207e-05)
(2.28547531304e-06 1.20289814319e-06 -4.90616612694e-05)
(2.50182879578e-06 1.04575747342e-06 -4.69309448059e-05)
(2.67584120336e-06 8.92704701743e-07 -4.48747350168e-05)
(2.81439023527e-06 7.47202957244e-07 -4.29907373412e-05)
(2.92527364849e-06 6.09319829305e-07 -4.13534616458e-05)
(3.01477551886e-06 4.7601812674e-07 -4.00146615233e-05)
(3.08502885842e-06 3.43847068591e-07 -3.90050534009e-05)
(3.13752016659e-06 2.08005130446e-07 -3.83405078633e-05)
(3.17096850903e-06 7.06974592672e-08 -3.80075863146e-05)
(2.32491516639e-07 1.96455558179e-06 -5.59890436247e-05)
(6.4940053442e-07 1.92164311376e-06 -5.54836032266e-05)
(1.06413009686e-06 1.84330135041e-06 -5.44743203398e-05)
(1.44264214706e-06 1.73005532979e-06 -5.3066867574e-05)
(1.78882567804e-06 1.59018532766e-06 -5.13441563721e-05)
(2.09526599194e-06 1.43302800307e-06 -4.93959302928e-05)
(2.35689591643e-06 1.26724298103e-06 -4.73171767106e-05)
(2.57172135142e-06 1.1017853819e-06 -4.52155190053e-05)
(2.74400640389e-06 9.4301005822e-07 -4.32007804076e-05)
(2.88184236334e-06 7.93031338812e-07 -4.13651254662e-05)
(2.99343905158e-06 6.50452708354e-07 -3.97759760781e-05)
(3.08481503436e-06 5.11042873843e-07 -3.84785812765e-05)
(3.15686460723e-06 3.70625484773e-07 -3.7498360411e-05)
(3.21110245979e-06 2.25205439738e-07 -3.68488752254e-05)
(3.24388611155e-06 7.69089155838e-08 -3.65154835328e-05)
(2.51352741639e-07 2.23920959223e-06 -5.37163279868e-05)
(6.93190354681e-07 2.19365512083e-06 -5.31999991102e-05)
(1.13157140425e-06 2.09880119971e-06 -5.21770079401e-05)
(1.52810541941e-06 1.96290757779e-06 -5.07688514439e-05)
(1.88695062043e-06 1.79725048586e-06 -4.90567467483e-05)
(2.20052932942e-06 1.61399223194e-06 -4.71287368956e-05)
(2.46483880926e-06 1.42408975358e-06 -4.50820424506e-05)
(2.67999373597e-06 1.23747759307e-06 -4.30262420645e-05)
(2.8522881653e-06 1.05990829529e-06 -4.10678820084e-05)
(2.99076064746e-06 8.92249629231e-07 -3.92915420698e-05)
(3.10357178993e-06 7.31984734787e-07 -3.77569852095e-05)
(3.19622011544e-06 5.74268548408e-07 -3.6503375529e-05)
(3.26859344859e-06 4.15122619209e-07 -3.55523009951e-05)
(3.32323632999e-06 2.51108418906e-07 -3.49170894994e-05)
(3.35357773469e-06 8.50825558199e-08 -3.45824960436e-05)
(2.74501677804e-07 2.68022093366e-06 -5.06611474382e-05)
(7.46507027338e-07 2.62417965346e-06 -5.01272358837e-05)
(1.21811438618e-06 2.50539814076e-06 -4.91089019779e-05)
(1.63961349508e-06 2.33697413352e-06 -4.77276744194e-05)
(2.01731350239e-06 2.13330820192e-06 -4.60587263464e-05)
(2.34307122991e-06 1.91027736082e-06 -4.41862714169e-05)
(2.61424809383e-06 1.68157696339e-06 -4.22074869617e-05)
(2.83321464893e-06 1.45849119546e-06 -4.02304751477e-05)
(3.00812395593e-06 1.2466239229e-06 -3.83555678872e-05)
(3.14870105308e-06 1.04621145973e-06 -3.6658560651e-05)
(3.26299924908e-06 8.54384527935e-07 -3.51918623098e-05)
(3.35628393928e-06 6.66326475117e-07 -3.39900374956e-05)
(3.42792576846e-06 4.78580462182e-07 -3.30718355107e-05)
(3.4816519318e-06 2.87585132194e-07 -3.24493785323e-05)
(3.51002153731e-06 9.67366718228e-08 -3.21101764225e-05)
(3.05094010823e-07 3.21937813269e-06 -4.65852998191e-05)
(8.15123483797e-07 3.15155090508e-06 -4.60570220834e-05)
(1.32644808357e-06 3.00454292807e-06 -4.50691206485e-05)
(1.77834148871e-06 2.79772322007e-06 -4.374676801e-05)
(2.1785187437e-06 2.54886125959e-06 -4.21591242981e-05)
(2.51855082486e-06 2.27736565453e-06 -4.03839825617e-05)
(2.79745285721e-06 1.99985523753e-06 -3.85157827786e-05)
(3.0198914159e-06 1.72915478075e-06 -3.66576165139e-05)
(3.19558271055e-06 1.47137001386e-06 -3.49008976269e-05)
(3.3347196193e-06 1.22704656425e-06 -3.33118676302e-05)
(3.44545677806e-06 9.93942390454e-07 -3.19360168893e-05)
(3.53356368947e-06 7.68065204823e-07 -3.0804833649e-05)
(3.59901064531e-06 5.46657505728e-07 -2.99363310069e-05)
(3.64727083938e-06 3.25930201941e-07 -2.93402856685e-05)
(3.6708483526e-06 1.08992807308e-07 -2.90039984846e-05)
(3.38325807752e-07 3.78993949567e-06 -4.12276175709e-05)
(8.86878796309e-07 3.70749214613e-06 -4.07154224096e-05)
(1.43926873021e-06 3.52877447736e-06 -3.97925042798e-05)
(1.9211197841e-06 3.27991240292e-06 -3.85752270243e-05)
(2.34224220623e-06 2.98135606392e-06 -3.71228224408e-05)
(2.69371776673e-06 2.65651921775e-06 -3.55051769699e-05)
(2.97660405695e-06 2.32469958604e-06 -3.38096195484e-05)
(3.19773180309e-06 2.00057980687e-06 -3.21293997775e-05)
(3.36818287728e-06 1.69147220945e-06 -3.0543896076e-05)
(3.49873920782e-06 1.39910313828e-06 -2.9109204968e-05)
(3.59826153929e-06 1.12246583522e-06 -2.78639315384e-05)
(3.67383173021e-06 8.58553667738e-07 -2.68358998026e-05)
(3.72683104616e-06 6.0517833703e-07 -2.60427740004e-05)
(3.76454661147e-06 3.57793687162e-07 -2.54928126357e-05)
(3.78046467584e-06 1.19009108625e-07 -2.51709663376e-05)
(3.68063673681e-07 4.24550323898e-06 -3.43391471222e-05)
(9.42916122286e-07 4.14829599204e-06 -3.38688712019e-05)
(1.52200790075e-06 3.94104491589e-06 -3.30505637633e-05)
(2.02171834168e-06 3.65483272514e-06 -3.19994913472e-05)
(2.45119402843e-06 3.31300765077e-06 -3.07543904231e-05)
(2.80223516991e-06 2.94172093316e-06 -2.93726605764e-05)
(3.07778336135e-06 2.56273004994e-06 -2.79297421147e-05)
(3.28668270822e-06 2.19243314726e-06 -2.65034060041e-05)
(3.44115132687e-06 1.8397928419e-06 -2.51578165199e-05)
(3.55278622925e-06 1.50822035648e-06 -2.39388013886e-05)
(3.63170084349e-06 1.19807260505e-06 -2.28786070564e-05)
(3.68674430105e-06 9.07035660358e-07 -2.19996857185e-05)
(3.72090999869e-06 6.33250044618e-07 -2.13169238216e-05)
(3.74318998975e-06 3.71127980873e-07 -2.08370572646e-05)
(3.74859685529e-06 1.22746688993e-07 -2.05434170659e-05)
(3.76109500281e-07 4.38267402228e-06 -2.57656817241e-05)
(9.41401703273e-07 4.27022919818e-06 -2.53701487902e-05)
(1.51204028633e-06 4.04300952175e-06 -2.47226466925e-05)
(1.99641741644e-06 3.73617194794e-06 -2.3903625235e-05)
(2.40451390747e-06 3.37249636388e-06 -2.29424701882e-05)
(2.72916702129e-06 2.97979860871e-06 -2.18808389884e-05)
(2.97547687606e-06 2.58051170283e-06 -2.07769381503e-05)
(3.15383459533e-06 2.19177327158e-06 -1.96885371045e-05)
(3.27718526057e-06 1.82363666852e-06 -1.86615475703e-05)
(3.35786868475e-06 1.48083264304e-06 -1.77303071875e-05)
(3.40721587954e-06 1.16459747182e-06 -1.69203749315e-05)
(3.43536568545e-06 8.72780731802e-07 -1.62475583172e-05)
(3.4464970383e-06 6.0351968919e-07 -1.57216321385e-05)
(3.45014878901e-06 3.5067654978e-07 -1.53470032745e-05)
(3.44364843593e-06 1.15279594728e-07 -1.5107607242e-05)
(3.27493659619e-07 3.77156781556e-06 -1.56697514475e-05)
(8.00499499546e-07 3.66123216716e-06 -1.53978350255e-05)
(1.27529418348e-06 3.45140192636e-06 -1.49770321609e-05)
(1.67393089598e-06 3.17461092279e-06 -1.44653710069e-05)
(2.00135507509e-06 2.85020855905e-06 -1.38687024083e-05)
(2.25365073366e-06 2.50278490488e-06 -1.32120980091e-05)
(2.43678466881e-06 2.15205638711e-06 -1.2531784175e-05)
(2.56091658482e-06 1.81300323803e-06 -1.18619562041e-05)
(2.63797660121e-06 1.49476067972e-06 -1.12290980915e-05)
(2.67949099564e-06 1.20195000529e-06 -1.06545937933e-05)
(2.69619895511e-06 9.3585488499e-07 -1.01554432036e-05)
(2.69760068103e-06 6.94257655315e-07 -9.74055991176e-06)
(2.68780427276e-06 4.75769046657e-07 -9.41472340657e-06)
(2.67576163657e-06 2.7418901892e-07 -9.18136849812e-06)
(2.66033554735e-06 8.92233050474e-08 -9.02581564944e-06)
(1.57502486198e-07 1.87877099097e-06 -5.12146820237e-06)
(3.96358123648e-07 1.80619549933e-06 -5.01459710436e-06)
(6.2422275259e-07 1.68835176032e-06 -4.87035675717e-06)
(8.11475925227e-07 1.53685128627e-06 -4.69529386117e-06)
(9.58255601698e-07 1.36329363787e-06 -4.49294030079e-06)
(1.06388396343e-06 1.18073576694e-06 -4.27140442544e-06)
(1.13275490852e-06 9.99892327686e-07 -4.04343343648e-06)
(1.17145753259e-06 8.28637964872e-07 -3.82020488038e-06)
(1.18720409794e-06 6.71630116473e-07 -3.60980524698e-06)
(1.18694697529e-06 5.31000672289e-07 -3.41937695081e-06)
(1.17690902092e-06 4.068678042e-07 -3.25490702869e-06)
(1.16231059608e-06 2.97452189281e-07 -3.11871371551e-06)
(1.14575622292e-06 2.01252045657e-07 -3.0122561933e-06)
(1.13022716729e-06 1.15128016573e-07 -2.93688955231e-06)
(1.1197345263e-06 3.5751140377e-08 -2.88384405507e-06)
(8.94572207438e-08 2.99351661793e-07 -5.78947855432e-05)
(2.54933130247e-07 2.85677790908e-07 -5.74230796678e-05)
(4.19542373139e-07 2.72973334881e-07 -5.64355379925e-05)
(5.69242481495e-07 2.50892813483e-07 -5.50431451683e-05)
(7.07365259074e-07 2.2057028337e-07 -5.33270870748e-05)
(8.30713255235e-07 1.86362888224e-07 -5.13753221667e-05)
(9.3686290806e-07 1.51322280743e-07 -4.92816538542e-05)
(1.02467203103e-06 1.1886941668e-07 -4.71514830256e-05)
(1.09592653525e-06 9.17632676272e-08 -4.50953739616e-05)
(1.154234552e-06 7.114154421e-08 -4.32106409383e-05)
(1.20327430149e-06 5.65921061458e-08 -4.15717084775e-05)
(1.24590976185e-06 4.58009108252e-08 -4.02305050583e-05)
(1.28133637897e-06 3.58520001475e-08 -3.92175966095e-05)
(1.30759292123e-06 2.26460118319e-08 -3.85503646187e-05)
(1.32498638283e-06 7.51241422335e-09 -3.8215650824e-05)
(9.54096085611e-08 4.0956914017e-07 -5.61664431487e-05)
(2.68065331953e-07 3.93794410914e-07 -5.56600982569e-05)
(4.39905997295e-07 3.7943997496e-07 -5.46505780456e-05)
(5.96640019389e-07 3.51875006218e-07 -5.32427933223e-05)
(7.40286717586e-07 3.15753018615e-07 -5.15193243702e-05)
(8.67546346621e-07 2.76179397557e-07 -4.95694429124e-05)
(9.76289430976e-07 2.36772764576e-07 -4.74886067662e-05)
(1.06632507875e-06 2.01091865152e-07 -4.53850877465e-05)
(1.14048764961e-06 1.7122985295e-07 -4.33687745696e-05)
(1.20303148498e-06 1.47196756375e-07 -4.15313346671e-05)
(1.25781850118e-06 1.27134080815e-07 -3.99401749277e-05)
(1.30729331514e-06 1.07339201348e-07 -3.8640646405e-05)
(1.34904893322e-06 8.38301198907e-08 -3.76579047912e-05)
(1.38014767403e-06 5.34052193076e-08 -3.70053720102e-05)
(1.3985849098e-06 1.9121862017e-08 -3.66681179976e-05)
(1.03701054235e-07 5.8851314637e-07 -5.38978330171e-05)
(2.87961643058e-07 5.75650832516e-07 -5.33792158908e-05)
(4.71371146354e-07 5.53299945995e-07 -5.23548936646e-05)
(6.37270843364e-07 5.14801585913e-07 -5.09436831973e-05)
(7.87883780553e-07 4.66289390368e-07 -4.92279423801e-05)
(9.19772485583e-07 4.13941953969e-07 -4.72952224501e-05)
(1.03159177719e-06 3.62428569734e-07 -4.52434485712e-05)
(1.1242852085e-06 3.15563587268e-07 -4.31830167299e-05)
(1.20157054888e-06 2.74751354137e-07 -4.12206431359e-05)
(1.26784859135e-06 2.38937343738e-07 -3.94405693161e-05)
(1.32654933273e-06 2.05315195003e-07 -3.79027183152e-05)
(1.37939035939e-06 1.69812846655e-07 -3.66463510976e-05)
(1.42300044899e-06 1.28810061149e-07 -3.5693056616e-05)
(1.45539243855e-06 8.02987986476e-08 -3.50560648995e-05)
(1.47364193228e-06 2.77604132097e-08 -3.4718665865e-05)
(1.143551754e-07 8.62709461257e-07 -5.08584456346e-05)
(3.13276036604e-07 8.4506357723e-07 -5.03269272084e-05)
(5.1356681647e-07 8.09953592191e-07 -4.93061035919e-05)
(6.92742021722e-07 7.5429055669e-07 -4.79208804824e-05)
(8.53952149173e-07 6.85676514168e-07 -4.6246904221e-05)
(9.93549985708e-07 6.12045047091e-07 -4.43678897788e-05)
(1.11090881149e-06 5.3927132324e-07 -4.23817944643e-05)
(1.20801235801e-06 4.716004324e-07 -4.03976130874e-05)
(1.28923401292e-06 4.1008052414e-07 -3.85159861299e-05)
(1.3589434811e-06 3.53130387109e-07 -3.6812602642e-05)
(1.42018416079e-06 2.97748292127e-07 -3.53402535909e-05)
(1.47432790046e-06 2.40163159786e-07 -3.41338008151e-05)
(1.51756104911e-06 1.77596851525e-07 -3.32122064851e-05)
(1.5492538061e-06 1.08716204442e-07 -3.2587794622e-05)
(1.56667014041e-06 3.67950995717e-08 -3.22457156547e-05)
(1.2961520426e-07 1.18948104894e-06 -4.67927460196e-05)
(3.48911873379e-07 1.16574033333e-06 -4.62635657723e-05)
(5.70268438216e-07 1.11475483882e-06 -4.52724457607e-05)
(7.66172958785e-07 1.03798546172e-06 -4.3945720555e-05)
(9.40302782806e-07 9.44558259279e-07 -4.23525497395e-05)
(1.08889815172e-06 8.44062997426e-07 -4.05702422075e-05)
(1.21217983433e-06 7.43666933011e-07 -3.86939881497e-05)
(1.3131039508e-06 6.48213830594e-07 -3.68276059646e-05)
(1.3964859785e-06 5.58903839618e-07 -3.50627695476e-05)
(1.46658916179e-06 4.74354223141e-07 -3.34657753135e-05)
(1.52633387227e-06 3.92115610987e-07 -3.20826566911e-05)
(1.57738385057e-06 3.09225845244e-07 -3.09452995466e-05)
(1.61626672498e-06 2.23745123502e-07 -3.00719896162e-05)
(1.64434668188e-06 1.34806423282e-07 -2.94729279611e-05)
(1.65927803981e-06 4.50152346736e-08 -2.91326933092e-05)
(1.46448393917e-07 1.53358705847e-06 -4.14176194225e-05)
(3.87075771216e-07 1.50168130257e-06 -4.09034843394e-05)
(6.3083485351e-07 1.43283374643e-06 -3.99792807726e-05)
(8.43841005466e-07 1.33260792164e-06 -3.87584563698e-05)
(1.03067248607e-06 1.21145245389e-06 -3.73010398218e-05)
(1.18723282011e-06 1.08078949496e-06 -3.56764641852e-05)
(1.3146820119e-06 9.49057169571e-07 -3.39728264427e-05)
(1.4167719999e-06 8.21962030222e-07 -3.22839647747e-05)
(1.49866428499e-06 7.01416906039e-07 -3.06895462123e-05)
(1.56472561409e-06 5.86884566411e-07 -2.92459801815e-05)
(1.61830394829e-06 4.7691440343e-07 -2.79926096388e-05)
(1.6619755521e-06 3.69369068556e-07 -2.69576813114e-05)
(1.69307150904e-06 2.62840993506e-07 -2.61591014583e-05)
(1.71495309894e-06 1.56311118414e-07 -2.56055836551e-05)
(1.72586852835e-06 5.16952209642e-08 -2.52796137592e-05)
(1.61765867578e-07 1.8160342724e-06 -3.44869113907e-05)
(4.18986413404e-07 1.77675794935e-06 -3.40144548448e-05)
(6.7847604999e-07 1.6914905925e-06 -3.31946547695e-05)
(9.02865938859e-07 1.57006796537e-06 -3.21403122517e-05)
(1.09629555474e-06 1.42404301659e-06 -3.08905659413e-05)
(1.25488115339e-06 1.2662614982e-06 -2.95024401834e-05)
(1.38062180643e-06 1.10630916382e-06 -2.80520046555e-05)
(1.47795156578e-06 9.50887910814e-07 -2.66174176611e-05)
(1.55235419544e-06 8.02985479772e-07 -2.52631229337e-05)
(1.60859810503e-06 6.63225848698e-07 -2.40354589656e-05)
(1.65090816605e-06 5.31191389461e-07 -2.29674368126e-05)
(1.68308166636e-06 4.05312115134e-07 -2.20817791058e-05)
(1.70329983231e-06 2.84515820675e-07 -2.13936415297e-05)
(1.71690279129e-06 1.67221771376e-07 -2.09102908681e-05)
(1.72234976253e-06 5.47976299089e-08 -2.06127542045e-05)
(1.6690155738e-07 1.93283824227e-06 -2.58413904224e-05)
(4.22702365571e-07 1.88589271563e-06 -2.54434226087e-05)
(6.81343020545e-07 1.78831344283e-06 -2.47946846939e-05)
(9.00855322052e-07 1.65390944656e-06 -2.39735224616e-05)
(1.08604916812e-06 1.49381565676e-06 -2.30089415501e-05)
(1.23363924825e-06 1.32149038415e-06 -2.19426014496e-05)
(1.34642242246e-06 1.1469403605e-06 -2.08330230145e-05)
(1.42941744425e-06 9.774162831e-07 -1.97381403221e-05)
(1.48836552576e-06 8.16795445405e-07 -1.87041444648e-05)
(1.5285564935e-06 6.66613342736e-07 -1.77659631971e-05)
(1.55506632936e-06 5.27096993101e-07 -1.6949642042e-05)
(1.57250095451e-06 3.96899624703e-07 -1.62709054378e-05)
(1.5798212457e-06 2.75130895666e-07 -1.57400427792e-05)
(1.58357537516e-06 1.60104493655e-07 -1.53620549031e-05)
(1.58266193103e-06 5.20625280164e-08 -1.51192134749e-05)
(1.45623414785e-07 1.6877564793e-06 -1.56256520999e-05)
(3.62342902615e-07 1.63918998793e-06 -1.53514558947e-05)
(5.78709663433e-07 1.54681726264e-06 -1.49315924187e-05)
(7.59946379972e-07 1.42348112172e-06 -1.44194890468e-05)
(9.08823500467e-07 1.2785283261e-06 -1.38222770732e-05)
(1.02337875008e-06 1.12377667701e-06 -1.31643197073e-05)
(1.10691183215e-06 9.67947267992e-07 -1.24819710848e-05)
(1.16413690488e-06 8.17519280223e-07 -1.18093755252e-05)
(1.20039676051e-06 6.7624511252e-07 -1.11732348777e-05)
(1.22081011635e-06 5.45825701418e-07 -1.05953939188e-05)
(1.23024822108e-06 4.26659805075e-07 -1.00929364759e-05)
(1.23305350372e-06 3.17374931858e-07 -9.67453102098e-06)
(1.22866105952e-06 2.17875937379e-07 -9.34591408561e-06)
(1.22455834443e-06 1.25531691203e-07 -9.11090564549e-06)
(1.21764259709e-06 4.01530759824e-08 -8.95216487392e-06)
(6.55431049069e-08 8.01938777943e-07 -4.96652271112e-06)
(1.70999064534e-07 7.699533572e-07 -4.86245681356e-06)
(2.69677390511e-07 7.19722012951e-07 -4.72011925735e-06)
(3.50595123945e-07 6.54479522201e-07 -4.54847785716e-06)
(4.13732815571e-07 5.79884768563e-07 -4.34980135912e-06)
(4.58891253153e-07 5.01830832515e-07 -4.13195777711e-06)
(4.88151415791e-07 4.24882274158e-07 -3.90737112991e-06)
(5.04496198782e-07 3.52316319754e-07 -3.68698190769e-06)
(5.11095302381e-07 2.86003377696e-07 -3.47889404526e-06)
(5.11015659707e-07 2.26654569275e-07 -3.29039858602e-06)
(5.06906162398e-07 1.74167900336e-07 -3.12736147216e-06)
(5.01043454133e-07 1.27544998401e-07 -2.99201505741e-06)
(4.93726077168e-07 8.63940675633e-08 -2.88663476368e-06)
(4.87301072295e-07 4.93779952638e-08 -2.81160503899e-06)
(4.8239175024e-07 1.49608070738e-08 -2.75870976829e-06)
(-3.7469902592e-08 -1.4173565209e-06 -5.8099718298e-05)
(-1.10658146737e-07 -1.39647908409e-06 -5.76263169488e-05)
(-1.83095197267e-07 -1.3509610355e-06 -5.66399885427e-05)
(-2.53891789464e-07 -1.29268614736e-06 -5.52493224536e-05)
(-3.19894976519e-07 -1.2241391903e-06 -5.35352012455e-05)
(-3.80519408093e-07 -1.14356466082e-06 -5.15846265943e-05)
(-4.35605348565e-07 -1.05165483673e-06 -4.94910655946e-05)
(-4.84758037968e-07 -9.49385001755e-07 -4.73603006842e-05)
(-5.26962219511e-07 -8.37844254603e-07 -4.53031245242e-05)
(-5.61083982428e-07 -7.18087151743e-07 -4.34165105003e-05)
(-5.86218567908e-07 -5.91238306779e-07 -4.1774916886e-05)
(-6.01362632672e-07 -4.59354910618e-07 -4.04307648547e-05)
(-6.07839774151e-07 -3.25286068982e-07 -3.94148214228e-05)
(-6.09608600044e-07 -1.93404700617e-07 -3.87444407953e-05)
(-6.12297418111e-07 -6.53108360541e-08 -3.84063639069e-05)
(-4.03216009251e-08 -1.29252569641e-06 -5.63491526133e-05)
(-1.18970799652e-07 -1.27311004469e-06 -5.58465209652e-05)
(-1.93439906418e-07 -1.2235372327e-06 -5.48369364202e-05)
(-2.63179678972e-07 -1.16432739624e-06 -5.34299167349e-05)
(-3.26759247926e-07 -1.09471217425e-06 -5.1707180646e-05)
(-3.83566039986e-07 -1.01337929281e-06 -4.97570528674e-05)
(-4.33333210668e-07 -9.21258658004e-07 -4.76751185057e-05)
(-4.75214430264e-07 -8.19533344337e-07 -4.55702790476e-05)
(-5.078605533e-07 -7.09864127639e-07 -4.35524894784e-05)
(-5.30097899469e-07 -5.94330549577e-07 -4.17128890386e-05)
(-5.41287591332e-07 -4.75709789327e-07 -4.01189773019e-05)
(-5.4134039798e-07 -3.57961391988e-07 -3.88165954114e-05)
(-5.33878776561e-07 -2.45508633115e-07 -3.78313707516e-05)
(-5.24910667341e-07 -1.42350251368e-07 -3.71768421364e-05)
(-5.21950102288e-07 -4.60999672061e-08 -3.68374561468e-05)
(-4.06416972308e-08 -1.17250554046e-06 -5.40893894806e-05)
(-1.20011039733e-07 -1.14552876933e-06 -5.35691564023e-05)
(-1.9321491222e-07 -1.09526362659e-06 -5.25436684696e-05)
(-2.60233678925e-07 -1.0353888096e-06 -5.11316809385e-05)
(-3.20083652129e-07 -9.65273105163e-07 -4.94149898606e-05)
(-3.72215646594e-07 -8.84291119678e-07 -4.74803499015e-05)
(-4.15951895602e-07 -7.93616857819e-07 -4.54259965987e-05)
(-4.50123294091e-07 -6.94865028548e-07 -4.33629753679e-05)
(-4.73440367583e-07 -5.90497579204e-07 -4.13980113263e-05)
(-4.85331240561e-07 -4.83580564514e-07 -3.96148930343e-05)
(-4.86151115479e-07 -3.77785091684e-07 -3.8073772197e-05)
(-4.77140803748e-07 -2.77306140277e-07 -3.68143289022e-05)
(-4.63506926833e-07 -1.85974948744e-07 -3.58585489444e-05)
(-4.51105011922e-07 -1.05861667118e-07 -3.52196330305e-05)
(-4.46529851063e-07 -3.39463125797e-08 -3.48805680944e-05)
(-4.0807827255e-08 -1.02607860469e-06 -5.10551204863e-05)
(-1.19927246037e-07 -1.00010046182e-06 -5.05232758345e-05)
(-1.90128936957e-07 -9.51069674858e-07 -4.95010464131e-05)
(-2.52898603495e-07 -8.92951464964e-07 -4.8114063034e-05)
(-3.07583672368e-07 -8.25289297633e-07 -4.64378824938e-05)
(-3.53528109765e-07 -7.47843400241e-07 -4.45556678964e-05)
(-3.89950506958e-07 -6.62154062269e-07 -4.25658415464e-05)
(-4.15691370936e-07 -5.70370531033e-07 -4.05780443694e-05)
(-4.29918726268e-07 -4.75611997622e-07 -3.8692909216e-05)
(-4.32938532358e-07 -3.81456551369e-07 -3.69857895968e-05)
(-4.26106823524e-07 -2.91631261825e-07 -3.55097920504e-05)
(-4.11560631687e-07 -2.09655291667e-07 -3.43001312365e-05)
(-3.95334657359e-07 -1.3803891758e-07 -3.33760620248e-05)
(-3.82587990765e-07 -7.7283901746e-08 -3.27500488913e-05)
(-3.7764711777e-07 -2.46313221124e-08 -3.24071726209e-05)
(-3.88010996502e-08 -8.77062600319e-07 -4.69913881866e-05)
(-1.13639560308e-07 -8.52422169359e-07 -4.64613561735e-05)
(-1.78446012147e-07 -8.06315696539e-07 -4.54681134567e-05)