/*--------------------------------*- C++ -*----------------------------------*\
| =========                 |                                                 |
| \\      /  F ield         | foam-extend: Open Source CFD                    |
|  \\    /   O peration     | Version:     4.1                                |
|   \\  /    A nd           | Web:         http://www.foam-extend.org         |
|    \\/     M anipulation  |                                                 |
\*---------------------------------------------------------------------------*/
FoamFile
{
    version     2.0;
    format      ascii;
    class       vectorField;
    location    "1";
    object      solidsCellD_iteration13;
}
// * * * * * * * * * * * * * * * * * * * * * * * * * * * * * * * * * * * * * //


1050
(
(2.19884787963e-07 1.52165851357e-06 -4.4861428045e-05)
(6.06133783587e-07 1.47531914229e-06 -4.44733479626e-05)
(9.86450112755e-07 1.39784553923e-06 -4.3741381271e-05)
(1.34014718567e-06 1.28986703733e-06 -4.27214264202e-05)
(1.66770572872e-06 1.15716122547e-06 -4.14679566876e-05)
(1.96163552545e-06 1.0069985659e-06 -4.00317263268e-05)
(2.21191077508e-06 8.49189432017e-07 -3.8474437157e-05)
(2.41142954946e-06 6.96013008229e-07 -3.68784879908e-05)
(2.56209882431e-06 5.57923185316e-07 -3.53352378548e-05)
(2.67321089572e-06 4.39921617609e-07 -3.39243060976e-05)
(2.75601647444e-06 3.41941275515e-07 -3.27033601088e-05)
(2.81959310079e-06 2.59643172661e-07 -3.17103712436e-05)
(2.86875090778e-06 1.86225168898e-07 -3.09670678737e-05)
(2.90494070124e-06 1.13723818067e-07 -3.0480963078e-05)
(2.92197698513e-06 3.80041290866e-08 -3.02421327671e-05)
(2.30724927916e-07 1.75065634929e-06 -4.38249687632e-05)
(6.36120469086e-07 1.69569749664e-06 -4.34598628081e-05)
(1.03780053635e-06 1.60475544857e-06 -4.27126929283e-05)
(1.40692429686e-06 1.47851156883e-06 -4.16861455949e-05)
(1.74593786045e-06 1.3256046765e-06 -4.04291057961e-05)
(2.04687984954e-06 1.15632719329e-06 -3.89918848729e-05)
(2.30057802533e-06 9.82723932324e-07 -3.74380007861e-05)
(2.50205868229e-06 8.18217914737e-07 -3.58544071477e-05)
(2.65597859587e-06 6.72289311326e-07 -3.43335494078e-05)
(2.77363417848e-06 5.47567509339e-07 -3.29514541566e-05)
(2.86693288475e-06 4.41191440925e-07 -3.17599695318e-05)
(2.94414787396e-06 3.46282106178e-07 -3.07922421206e-05)
(3.00771213891e-06 2.54442988175e-07 -3.00670019777e-05)
(3.05645406119e-06 1.57781531895e-07 -2.95906759883e-05)
(3.08089265949e-06 5.4733350815e-08 -2.9356349183e-05)
(2.55353337589e-07 2.13854943844e-06 -4.23746876344e-05)
(6.93985013592e-07 2.08618782586e-06 -4.19556233867e-05)
(1.12770891725e-06 1.97916872609e-06 -4.12023047581e-05)
(1.52511292539e-06 1.82962286497e-06 -4.01705318039e-05)
(1.8864662637e-06 1.64925639289e-06 -3.89123906789e-05)
(2.20360834659e-06 1.45117909945e-06 -3.74785999869e-05)
(2.46824841378e-06 1.2497263262e-06 -3.59378726219e-05)
(2.67822807746e-06 1.05936352421e-06 -3.4379873503e-05)
(2.84111119348e-06 8.88679299524e-07 -3.28943554243e-05)
(2.96960410075e-06 7.3829523651e-07 -3.15512403827e-05)
(3.07525453624e-06 6.03487007609e-07 -3.03957980186e-05)
(3.16496684483e-06 4.76456854929e-07 -2.94565846675e-05)
(3.23926354471e-06 3.49201067439e-07 -2.87493613973e-05)
(3.29675466683e-06 2.14851866473e-07 -2.82794316281e-05)
(3.32510069182e-06 7.47401053665e-08 -2.80411798676e-05)
(2.83425572133e-07 2.72225661725e-06 -4.02397767353e-05)
(7.64251392059e-07 2.6581373488e-06 -3.98444791062e-05)
(1.24527560912e-06 2.52810988216e-06 -3.90971719242e-05)
(1.68115682386e-06 2.34484320252e-06 -3.80829738353e-05)
(2.07429951342e-06 2.12353226094e-06 -3.6846498124e-05)
(2.41541942251e-06 1.88095936184e-06 -3.54397320862e-05)
(2.69788080034e-06 1.63453919472e-06 -3.39353342121e-05)
(2.92250941079e-06 1.40011955797e-06 -3.24234654479e-05)
(3.09929931329e-06 1.18584075985e-06 -3.09895558061e-05)
(3.24166898237e-06 9.91153370746e-07 -2.9696985513e-05)
(3.36043845766e-06 8.10594509835e-07 -2.85848129451e-05)
(3.46142410517e-06 6.36670661895e-07 -2.76777148609e-05)
(3.5438388522e-06 4.62411650641e-07 -2.69897536709e-05)
(3.60672171e-06 2.81600445667e-07 -2.65255614467e-05)
(3.63837647812e-06 9.76251671653e-08 -2.62801187467e-05)
(3.23084123053e-07 3.42426216733e-06 -3.7350315822e-05)
(8.59294222186e-07 3.34906889783e-06 -3.69430656372e-05)
(1.39773250994e-06 3.19234816409e-06 -3.62071155417e-05)
(1.88126178067e-06 2.96916412777e-06 -3.52249531369e-05)
(2.3128738094e-06 2.69853125665e-06 -3.40336413832e-05)
(2.6826595308e-06 2.40097099423e-06 -3.26839564548e-05)
(2.98606667064e-06 2.09713158791e-06 -3.1249431043e-05)
(3.22685415824e-06 1.80439356588e-06 -2.98168996787e-05)
(3.41693384354e-06 1.5312721362e-06 -2.84642883017e-05)
(3.56997910999e-06 1.27746618133e-06 -2.72469052438e-05)
(3.69615894799e-06 1.03818470975e-06 -2.61975653997e-05)
(3.80103266759e-06 8.07396497961e-07 -2.53373830291e-05)
(3.88407850757e-06 5.79708616533e-07 -2.46807579075e-05)
(3.94581182266e-06 3.4949835505e-07 -2.42331598205e-05)
(3.97617617364e-06 1.20777739143e-07 -2.39887516635e-05)
(3.67837718957e-07 4.18764529731e-06 -3.34049294712e-05)
(9.65449901071e-07 4.09906378615e-06 -3.3020628473e-05)
(1.56722703525e-06 3.90554382585e-06 -3.232052018e-05)
(2.10103258514e-06 3.63538793925e-06 -3.14068918021e-05)
(2.57174526983e-06 3.30745483535e-06 -3.03057384963e-05)
(2.96902871092e-06 2.94694084821e-06 -2.90637412883e-05)
(3.290936718e-06 2.57712975744e-06 -2.7750729558e-05)
(3.543923552e-06 2.21707257862e-06 -2.64456613746e-05)
(3.74139325479e-06 1.87643483702e-06 -2.52159224009e-05)
(3.89717086673e-06 1.5564924262e-06 -2.41079860842e-05)
(4.02132333306e-06 1.25414841296e-06 -2.3149588102e-05)
(4.12013998944e-06 9.65031003309e-07 -2.23583823058e-05)
(4.19473708955e-06 6.85221451654e-07 -2.1748019119e-05)
(4.24807182319e-06 4.09201537657e-07 -2.13257451261e-05)
(4.27288927087e-06 1.40996527718e-07 -2.1086002801e-05)
(4.13547061761e-07 4.86491827209e-06 -2.82298669761e-05)
(1.06270037158e-06 4.75737826956e-06 -2.78508176246e-05)
(1.7170148958e-06 4.53009518306e-06 -2.72373425927e-05)
(2.29263196407e-06 4.21259811124e-06 -2.64366824746e-05)
(2.79163723193e-06 3.82999510163e-06 -2.54800707534e-05)
(3.20553719591e-06 3.40944685638e-06 -2.44046616679e-05)
(3.53480215602e-06 2.97706469658e-06 -2.32728472677e-05)
(3.78843848541e-06 2.55338006264e-06 -2.21517963645e-05)
(3.9809921319e-06 2.14971817829e-06 -2.10957745223e-05)
(4.12658776951e-06 1.76986174873e-06 -2.01415117535e-05)
(4.23605697986e-06 1.41311573447e-06 -1.93131319759e-05)
(4.31749032797e-06 1.07642493649e-06 -1.86265728737e-05)
(4.37440624822e-06 7.56640547571e-07 -1.80931459065e-05)
(4.41251022185e-06 4.47819660784e-07 -1.771960992e-05)
(4.42781399152e-06 1.53947535881e-07 -1.74998125231e-05)
(4.38169992541e-07 5.23380951285e-06 -2.16146733725e-05)
(1.10680591075e-06 5.10526592727e-06 -2.13210562331e-05)
(1.78197168784e-06 4.84929402871e-06 -2.08025405501e-05)
(2.36525118248e-06 4.49929774382e-06 -2.01714553392e-05)
(2.86260694561e-06 4.07990173624e-06 -1.94181523764e-05)
(3.26580618298e-06 3.62140198802e-06 -1.85787587171e-05)
(3.57849284193e-06 3.15050407503e-06 -1.7700417299e-05)
(3.81156572475e-06 2.68850756891e-06 -1.68338611193e-05)
(3.98019668192e-06 2.24802082611e-06 -1.60174038744e-05)
(4.09879162858e-06 1.83518494252e-06 -1.52764463905e-05)
(4.17959024545e-06 1.45161000752e-06 -1.4630824544e-05)
(4.23303602194e-06 1.09501229108e-06 -1.40952300567e-05)
(4.26493356597e-06 7.623120691e-07 -1.3677982884e-05)
(4.28250316668e-06 4.47024393379e-07 -1.33828550799e-05)
(4.28537839403e-06 1.53387548229e-07 -1.32014419999e-05)
(4.06716043125e-07 4.77739100595e-06 -1.36422435579e-05)
(9.99380729978e-07 4.64836292206e-06 -1.34134453378e-05)
(1.59727322488e-06 4.39797768707e-06 -1.30956895399e-05)
(2.10938762108e-06 4.06477664294e-06 -1.26859422563e-05)
(2.53501829834e-06 3.67031851908e-06 -1.22076961003e-05)
(2.87096575248e-06 3.2422151994e-06 -1.16741073311e-05)
(3.12230572515e-06 2.80495203939e-06 -1.11181816607e-05)
(3.30044495597e-06 2.37775539094e-06 -1.05718939646e-05)
(3.41962237031e-06 1.97245870961e-06 -1.00577015598e-05)
(3.49329458672e-06 1.59569257296e-06 -9.5894065e-06)
(3.53392414547e-06 1.25001920902e-06 -9.17985058385e-06)
(3.55277294933e-06 9.33464628787e-07 -8.83949415359e-06)
(3.55630786907e-06 6.43616401515e-07 -8.57246310728e-06)
(3.55177872493e-06 3.74075352502e-07 -8.38089406562e-06)
(3.54194523355e-06 1.28510256953e-07 -8.25583158628e-06)
(2.47329719998e-07 2.88802233436e-06 -4.90104388512e-06)
(5.99518249585e-07 2.7881698777e-06 -4.82031156137e-06)
(9.50287229109e-07 2.6215984281e-06 -4.69540347476e-06)
(1.2443013101e-06 2.40424131301e-06 -4.55103033562e-06)
(1.48024732156e-06 2.15187449006e-06 -4.37978434963e-06)
(1.65693158732e-06 1.88165410792e-06 -4.1906835603e-06)
(1.77945347142e-06 1.60931532922e-06 -3.99466107776e-06)
(1.8565261583e-06 1.34709243978e-06 -3.80325775624e-06)
(1.89798676743e-06 1.10243111569e-06 -3.62379352933e-06)
(1.91308297564e-06 8.79334881257e-07 -3.46026136001e-06)
(1.91069405827e-06 6.79199195982e-07 -3.31730848455e-06)
(1.89879938557e-06 5.00361447562e-07 -3.19888242752e-06)
(1.88207860909e-06 3.41033263992e-07 -3.10510204155e-06)
(1.86435441562e-06 1.96797625203e-07 -3.03784799766e-06)
(1.85230803456e-06 6.81326311292e-08 -2.99000642071e-06)
(1.35795692783e-07 7.33480578791e-07 -4.50477889689e-05)
(3.81154141127e-07 7.15053990027e-07 -4.46506462102e-05)
(6.20685966028e-07 6.77045695771e-07 -4.39192968606e-05)
(8.44589076884e-07 6.23107610943e-07 -4.29021705373e-05)
(1.05264569917e-06 5.55911128863e-07 -4.16523689166e-05)
(1.23968112811e-06 4.80345315722e-07 -4.02188719405e-05)
(1.39944697563e-06 4.0192895435e-07 -3.86622826775e-05)
(1.52831862308e-06 3.2735239828e-07 -3.70658762027e-05)
(1.62844113188e-06 2.62012661642e-07 -3.55220856686e-05)
(1.70613888037e-06 2.08042778164e-07 -3.41108432254e-05)
(1.76846732125e-06 1.64739559964e-07 -3.28893974324e-05)
(1.8206192393e-06 1.28701193666e-07 -3.18957302773e-05)
(1.86411233708e-06 9.52050669588e-08 -3.11521272235e-05)
(1.89911142266e-06 5.89075108512e-08 -3.06669300064e-05)
(1.92296246244e-06 2.00988057966e-08 -3.04276141076e-05)
(1.42426573087e-07 8.79337424829e-07 -4.39945316782e-05)
(3.99352114986e-07 8.53314864056e-07 -4.36302956e-05)
(6.52240798652e-07 8.09194132131e-07 -4.28853073361e-05)
(8.85945395903e-07 7.44760655569e-07 -4.18595856931e-05)
(1.10131045668e-06 6.66159149067e-07 -4.06024143548e-05)
(1.29282283167e-06 5.79986923342e-07 -3.91627859456e-05)
(1.45495069952e-06 4.92971134222e-07 -3.76042848847e-05)
(1.58549718959e-06 4.12274120368e-07 -3.6015163402e-05)
(1.68813094231e-06 3.42531303011e-07 -3.44891415816e-05)
(1.77013434962e-06 2.84351743821e-07 -3.31027875482e-05)
(1.83874436105e-06 2.35218240595e-07 -3.19077104987e-05)
(1.89856599309e-06 1.90143708071e-07 -3.09373884499e-05)
(1.94945731604e-06 1.43381481651e-07 -3.02106175679e-05)
(1.99053471762e-06 9.03746352997e-08 -2.97339432427e-05)
(2.01672704799e-06 3.170468272e-08 -2.94978743183e-05)
(1.56262849827e-07 1.13196010631e-06 -4.25728083373e-05)
(4.33718150207e-07 1.11001133379e-06 -4.21554279731e-05)
(7.06377193689e-07 1.0547617822e-06 -4.14028210925e-05)
(9.5648047129e-07 9.7416419666e-07 -4.03700086613e-05)
(1.184413346e-06 8.76294277808e-07 -3.91091967625e-05)
(1.3845704345e-06 7.70031151733e-07 -3.76700059291e-05)
(1.55238603054e-06 6.63867987349e-07 -3.61217461807e-05)
(1.68746911584e-06 5.65664787815e-07 -3.45556082239e-05)
(1.79507097596e-06 4.79413062087e-07 -3.30627902816e-05)
(1.88306333717e-06 4.04381739798e-07 -3.17138407595e-05)
(1.95826543929e-06 3.36802193353e-07 -3.05537914889e-05)
(2.02441083146e-06 2.71146936067e-07 -2.96115311777e-05)
(2.08002072848e-06 2.01916828582e-07 -2.89026015892e-05)
(2.12476560579e-06 1.25581998984e-07 -2.84320941109e-05)
(2.1508644922e-06 4.33156364174e-08 -2.81920564253e-05)
(1.74524955506e-07 1.52619868639e-06 -4.0461945713e-05)
(4.78686726416e-07 1.4979187009e-06 -4.00639727559e-05)
(7.8015302917e-07 1.42550716695e-06 -3.93180569345e-05)
(1.05415863039e-06 1.32075650929e-06 -3.83021944436e-05)
(1.30146195428e-06 1.19379371422e-06 -3.70625656056e-05)
(1.51603890385e-06 1.05613949332e-06 -3.56496944746e-05)
(1.69443758333e-06 9.18439417355e-07 -3.41370704736e-05)
(1.83806142895e-06 7.89517566997e-07 -3.26163005267e-05)
(1.95350676734e-06 6.73123761231e-07 -3.11741720141e-05)
(2.04893812908e-06 5.67843103148e-07 -2.98746801597e-05)
(2.13067923679e-06 4.69490011538e-07 -2.87566782486e-05)
(2.20190055467e-06 3.72816621262e-07 -2.78452209061e-05)
(2.26033281782e-06 2.73063311867e-07 -2.71547727749e-05)
(2.30660734328e-06 1.67243503152e-07 -2.66899310686e-05)
(2.3319772805e-06 5.68428066869e-08 -2.64432381276e-05)
(1.9916945885e-07 2.00613946182e-06 -3.75837536203e-05)
(5.39131189186e-07 1.96685208464e-06 -3.71762267817e-05)
(8.77112313862e-07 1.87508626828e-06 -3.64412195546e-05)
(1.18116181292e-06 1.74183459833e-06 -3.54582448209e-05)
(1.45243298719e-06 1.58021192527e-06 -3.42642778875e-05)
(1.68465997146e-06 1.40405266913e-06 -3.29087057741e-05)
(1.87572775524e-06 1.22624980916e-06 -3.1465832543e-05)
(2.02874896485e-06 1.05676057232e-06 -3.00237681188e-05)
(2.15136091419e-06 8.99722371763e-07 -2.86616851593e-05)
(2.25179927998e-06 7.54044274398e-07 -2.74355864073e-05)
(2.33604369446e-06 6.16117534173e-07 -2.6378264433e-05)
(2.40729663956e-06 4.81689846143e-07 -2.55109880927e-05)
(2.46357121811e-06 3.47027949367e-07 -2.48486694408e-05)
(2.50720176462e-06 2.09720645763e-07 -2.43971768692e-05)
(2.52884368043e-06 7.06157083682e-08 -2.41493961888e-05)
(2.26706169319e-07 2.52316276257e-06 -3.36262440364e-05)
(6.06028869386e-07 2.47402829291e-06 -3.32418906413e-05)
(9.83973099199e-07 2.35680986532e-06 -3.25401610278e-05)
(1.31937078808e-06 2.19094049858e-06 -3.16244764214e-05)
(1.61480993631e-06 1.98973847096e-06 -3.05191937656e-05)
(1.86366649395e-06 1.77001408184e-06 -2.92702611242e-05)
(2.06547334255e-06 1.54648001639e-06 -2.79482148053e-05)
(2.22485601937e-06 1.33039094984e-06 -2.66330053757e-05)
(2.35027943265e-06 1.12687016783e-06 -2.53928994536e-05)
(2.45008837185e-06 9.36093538236e-07 -2.42749203631e-05)
(2.53040784325e-06 7.55779906419e-07 -2.3307158665e-05)
(2.59520053567e-06 5.82795699391e-07 -2.2507619449e-05)
(2.64357866315e-06 4.14198868632e-07 -2.18904891459e-05)
(2.68007355225e-06 2.47575242601e-07 -2.14634138798e-05)
(2.6954450938e-06 8.28308694568e-08 -2.12206688996e-05)
(2.53832329806e-07 2.97244509941e-06 -2.84000899693e-05)
(6.65427918066e-07 2.9117305279e-06 -2.80146162334e-05)
(1.07471650816e-06 2.77068827648e-06 -2.74029977534e-05)
(1.43466464441e-06 2.57296717867e-06 -2.6600291232e-05)
(1.74598029598e-06 2.33462617368e-06 -2.56398209707e-05)
(2.00326378063e-06 2.07418648453e-06 -2.45578931485e-05)
(2.20754341294e-06 1.80811711175e-06 -2.34175683123e-05)
(2.36490210291e-06 1.54888607611e-06 -2.22867867689e-05)
(2.48447883921e-06 1.30292898494e-06 -2.1220377397e-05)
(2.5748912336e-06 1.07219652864e-06 -2.02554181049e-05)
(2.64302204445e-06 8.56051593265e-07 -1.94168128365e-05)
(2.69433658562e-06 6.52211071116e-07 -1.87214178662e-05)
(2.72945385086e-06 4.58134416249e-07 -1.81812693048e-05)
(2.75503930366e-06 2.70924158556e-07 -1.78030789216e-05)
(2.76204979051e-06 9.00798444983e-08 -1.75809259644e-05)
(2.65677472925e-07 3.19600932386e-06 -2.16824405228e-05)
(6.85139218988e-07 3.12079092447e-06 -2.13861951594e-05)
(1.10314877383e-06 2.962433042e-06 -2.08679508396e-05)
(1.4634263182e-06 2.74413450353e-06 -2.023520666e-05)
(1.76914911954e-06 2.48299554923e-06 -1.94786668538e-05)
(2.01551621547e-06 2.19868410484e-06 -1.86340857016e-05)
(2.20527901567e-06 1.90826354006e-06 -1.77488164965e-05)
(2.34569452813e-06 1.62482042505e-06 -1.68739931893e-05)
(2.44631015081e-06 1.35586438731e-06 -1.60481394899e-05)
(2.51604403096e-06 1.10492771717e-06 -1.52968180885e-05)
(2.56285481283e-06 8.7273097124e-07 -1.46408491679e-05)
(2.59380509596e-06 6.57356869276e-07 -1.40960151724e-05)
(2.61078264577e-06 4.56471756822e-07 -1.3671190676e-05)
(2.62146423908e-06 2.67003034616e-07 -1.33697581759e-05)
(2.61797004754e-06 8.81803870211e-08 -1.31838395188e-05)
(2.39359487784e-07 2.86570509121e-06 -1.35389145946e-05)
(6.05786671221e-07 2.78777548729e-06 -1.33074571684e-05)
(9.67633833139e-07 2.63451759825e-06 -1.29906465635e-05)
(1.27553872316e-06 2.43000927278e-06 -1.25799992346e-05)
(1.52986669053e-06 2.18835999451e-06 -1.21000082102e-05)
(1.72831032868e-06 1.92746416224e-06 -1.15633523837e-05)
(1.87478800268e-06 1.66236681028e-06 -1.10028771802e-05)
(1.9765855117e-06 1.40481543318e-06 -1.045067763e-05)
(2.04263257716e-06 1.16187646398e-06 -9.92927956685e-06)
(2.08129650987e-06 9.37410503458e-07 -9.45268209551e-06)
(2.10062043133e-06 7.32592973432e-07 -9.03467612552e-06)
(2.10788851129e-06 5.45559643195e-07 -8.68637567103e-06)
(2.10524269975e-06 3.74960739187e-07 -8.41209425073e-06)
(2.10055857282e-06 2.17611142138e-07 -8.21399094007e-06)
(2.0877527283e-06 7.14014310558e-08 -8.08483461664e-06)
(1.22693323934e-07 1.51013229285e-06 -4.51395175642e-06)
(3.1479440232e-07 1.45436045822e-06 -4.43517389439e-06)
(4.97813898928e-07 1.36282209894e-06 -4.31493657449e-06)
(6.49903831937e-07 1.24401417156e-06 -4.17507783677e-06)
(7.69797756521e-07 1.10693580872e-06 -4.00926051112e-06)
(8.57177985268e-07 9.61531503436e-07 -3.82541136496e-06)
(9.15087419458e-07 8.16516900032e-07 -3.63402382922e-06)
(9.48669631053e-07 6.7848285969e-07 -3.44623322747e-06)
(9.63597862917e-07 5.51306546619e-07 -3.26911712435e-06)
(9.65189884453e-07 4.36916799705e-07 -3.10670798506e-06)
(9.5852900477e-07 3.35626593477e-07 -2.96408041262e-06)
(9.48033327495e-07 2.45913466906e-07 -2.84518883637e-06)
(9.35304068105e-07 1.66960693205e-07 -2.75032308712e-06)
(9.23453804157e-07 9.61028740199e-08 -2.68220215166e-06)
(9.14300061109e-07 3.04469084837e-08 -2.63508596105e-06)
(4.80160507035e-08 -2.20464887761e-07 -4.52427821305e-05)
(1.35471943962e-07 -2.23449527557e-07 -4.48455323317e-05)
(2.20878509522e-07 -2.22668330499e-07 -4.41172083835e-05)
(3.00047463787e-07 -2.24931090772e-07 -4.31018474914e-05)
(3.73474942635e-07 -2.29424591799e-07 -4.18532847473e-05)
(4.38861461827e-07 -2.33009404479e-07 -4.0420181448e-05)
(4.93546657967e-07 -2.33365883845e-07 -3.88631238927e-05)
(5.36446145252e-07 -2.2769523494e-07 -3.72656348625e-05)
(5.69225279626e-07 -2.13931644778e-07 -3.57202577058e-05)
(5.95329427672e-07 -1.91525344248e-07 -3.43068990133e-05)
(6.18269010283e-07 -1.61104377984e-07 -3.30826950944e-05)
(6.40441962616e-07 -1.25034093435e-07 -3.20862703282e-05)
(6.61163828724e-07 -8.67355884826e-08 -3.13403576762e-05)
(6.78139930078e-07 -5.10786935371e-08 -3.08533660588e-05)
(6.90973573497e-07 -1.7298758458e-08 -3.06106777756e-05)
(5.15000799697e-08 -9.66751622106e-08 -4.41574139788e-05)
(1.43799220677e-07 -1.0331565546e-07 -4.37919392471e-05)
(2.359696014e-07 -1.03069166599e-07 -4.3048002542e-05)
(3.21260205048e-07 -1.10117533233e-07 -4.2021555113e-05)
(3.99953548405e-07 -1.19762338279e-07 -4.07628793418e-05)
(4.69496003281e-07 -1.28170838982e-07 -3.9320790694e-05)
(5.27700676019e-07 -1.32517352016e-07 -3.77596111074e-05)
(5.74376965056e-07 -1.29988108981e-07 -3.61680276759e-05)
(6.12097125938e-07 -1.19190980902e-07 -3.46398672608e-05)
(6.44878894522e-07 -1.00742412075e-07 -3.32515016714e-05)
(6.76304436556e-07 -7.68517360279e-08 -3.20541841273e-05)
(7.08234955299e-07 -5.14099835638e-08 -3.10819952559e-05)
(7.38262747346e-07 -2.90764727667e-08 -3.03537472552e-05)
(7.62523412471e-07 -1.37166195426e-08 -2.98765581908e-05)
(7.78018330654e-07 -3.3868536734e-09 -2.9639434788e-05)
(5.77282212893e-08 7.68024423562e-08 -4.2739702095e-05)
(1.60543671475e-07 7.55645450225e-08 -4.23301021466e-05)
(2.63430097925e-07 7.01514032516e-08 -4.15759942652e-05)
(3.57570264072e-07 5.49599603895e-08 -4.05419100165e-05)
(4.43608634276e-07 3.5302380952e-08 -3.9278112271e-05)
(5.18811949948e-07 1.62448052063e-08 -3.78343931856e-05)
(5.81772673431e-07 1.49107170819e-09 -3.62810587823e-05)
(6.33300713484e-07 -6.00938614649e-09 -3.47099287839e-05)
(6.76691533948e-07 -5.53335216177e-09 -3.32125798899e-05)
(7.16015294564e-07 1.23637383076e-09 -3.18595786337e-05)
(7.54266366547e-07 1.10759898959e-08 -3.06957336783e-05)
(7.92421635295e-07 1.96966513913e-08 -2.97504573906e-05)
(8.26877095332e-07 2.26968587433e-08 -2.90392878102e-05)
(8.54381319146e-07 1.76877828124e-08 -2.85677047193e-05)
(8.70962676072e-07 6.96815308076e-09 -2.8326192179e-05)
(6.72313486601e-08 3.30621417016e-07 -4.06535150129e-05)
(1.83855041828e-07 3.2750874979e-07 -4.02522543676e-05)
(3.01639997662e-07 3.11973876598e-07 -3.95043994498e-05)
(4.09096992793e-07 2.83597444545e-07 -3.84863187333e-05)
(5.06391064908e-07 2.47858239986e-07 -3.72429572768e-05)
(5.90778771982e-07 2.11227436716e-07 -3.58248281236e-05)
(6.61447256252e-07 1.7840078298e-07 -3.43063130308e-05)
(7.20019242416e-07 1.52602048427e-07 -3.27795707061e-05)
(7.70243176653e-07 1.34165912416e-07 -3.13317886638e-05)
(8.16003957685e-07 1.20873888411e-07 -3.00270412655e-05)
(8.59694709897e-07 1.09258044371e-07 -2.89040745975e-05)
(9.01724645816e-07 9.53778581373e-08 -2.79883721563e-05)
(9.37753510742e-07 7.56335552149e-08 -2.72944000839e-05)
(9.65596024664e-07 4.87454018763e-08 -2.68273371156e-05)
(9.81779315148e-07 1.69591241944e-08 -2.65773383175e-05)
(8.01238411183e-08 6.2943298009e-07 -3.77718799493e-05)
(2.16274777707e-07 6.17898366072e-07 -3.73599039486e-05)
(3.5402784523e-07 5.91016596276e-07 -3.66244303489e-05)
(4.78557441714e-07 5.46567873526e-07 -3.56397238724e-05)
(5.89855419399e-07 4.91452390613e-07 -3.44425964525e-05)
(6.85298132851e-07 4.33064009312e-07 -3.30823081736e-05)
(7.64706351958e-07 3.77118699798e-07 -3.16338278786e-05)
(8.30387172937e-07 3.27246598392e-07 -3.01857222949e-05)
(8.86329846727e-07 2.8384984423e-07 -2.88175519415e-05)
(9.36124885889e-07 2.44904274673e-07 -2.75854686329e-05)
(9.81772874595e-07 2.07473070371e-07 -2.65223743761e-05)
(1.02368175272e-06 1.68488656439e-07 -2.56500403012e-05)
(1.05757964029e-06 1.25244726868e-07 -2.49834558807e-05)
(1.08306146578e-06 7.730217696e-08 -2.45294533815e-05)
(1.09715671146e-06 2.61224231073e-08 -2.42786548757e-05)
(9.44953488714e-08 9.4521627803e-07 -3.38009151665e-05)
(2.52525542326e-07 9.27086717593e-07 -3.34159262506e-05)
(4.12808023237e-07 8.86012670878e-07 -3.2713051631e-05)
(5.55455997974e-07 8.23017722796e-07 -3.17950140742e-05)
(6.81305236209e-07 7.45559088577e-07 -3.06859739067e-05)
(7.87567721185e-07 6.6218578161e-07 -2.94320111243e-05)
(8.74782970748e-07 5.79464213242e-07 -2.81040900853e-05)
(9.45741033319e-07 5.01629691551e-07 -2.6782499763e-05)
(1.00455168497e-06 4.29656065989e-07 -2.55357768898e-05)
(1.05461621478e-06 3.62391811722e-07 -2.4411050626e-05)
(1.09800233449e-06 2.97941501556e-07 -2.34367441283e-05)
(1.13578200933e-06 2.34171721285e-07 -2.26316055102e-05)
(1.16433874041e-06 1.68987400953e-07 -2.20100842831e-05)
(1.18544650493e-06 1.02098180593e-07 -2.15807550634e-05)
(1.19645974825e-06 3.40645310789e-08 -2.13356762159e-05)
(1.08963762339e-07 1.22331399394e-06 -2.85451845004e-05)
(2.86792754941e-07 1.20047190563e-06 -2.81592532275e-05)
(4.65451005943e-07 1.1447983936e-06 -2.75473839718e-05)
(6.23070810609e-07 1.06360323781e-06 -2.67429512699e-05)
(7.59569089457e-07 9.64494248915e-07 -2.57794853638e-05)
(8.72651305518e-07 8.57169534635e-07 -2.46933238395e-05)
(9.63471334921e-07 7.48850057539e-07 -2.35477341394e-05)
(1.03522931641e-06 6.44488288144e-07 -2.24108881097e-05)
(1.09211338895e-06 5.45925446769e-07 -2.13378142414e-05)
(1.13752498957e-06 4.5320067595e-07 -2.03657143132e-05)
(1.17407620474e-06 3.65510376332e-07 -1.95200411862e-05)
(1.20403226637e-06 2.81350451876e-07 -1.88184533662e-05)
(1.22460197672e-06 1.99046049484e-07 -1.82732269086e-05)
(1.23976762183e-06 1.18169044214e-07 -1.78916305715e-05)
(1.24647856012e-06 3.89944266359e-08 -1.76655025395e-05)
(1.16554209373e-07 1.38125328052e-06 -2.17743314964e-05)
(3.01469403605e-07 1.35149009135e-06 -2.14761831889e-05)
(4.8811778069e-07 1.28596375414e-06 -2.09589412119e-05)
(6.49189809243e-07 1.19207854911e-06 -2.03245808037e-05)
(7.85741257684e-07 1.07905436483e-06 -1.95661091893e-05)
(8.96053740301e-07 9.56358877084e-07 -1.87183487941e-05)
(9.81737345153e-07 8.31747382334e-07 -1.78288011355e-05)
(1.04642145631e-06 7.10615058097e-07 -1.69486744198e-05)
(1.09434456903e-06 5.9570878609e-07 -1.61166151168e-05)
(1.12908254117e-06 4.88168526153e-07 -1.53584219812e-05)
(1.15405448413e-06 3.87965136376e-07 -1.46956712481e-05)
(1.17261133045e-06 2.93767740189e-07 -1.41446047339e-05)
(1.18254016808e-06 2.04327796496e-07 -1.37138691783e-05)
(1.18941644639e-06 1.19608860117e-07 -1.34071063107e-05)
(1.19017156844e-06 3.91888498898e-08 -1.321630746e-05)
(1.06221589807e-07 1.26896357064e-06 -1.35402869253e-05)
(2.72211400885e-07 1.23564417746e-06 -1.33093382603e-05)
(4.36467381728e-07 1.16984098999e-06 -1.29912477579e-05)
(5.75555633461e-07 1.07991944489e-06 -1.25802094955e-05)
(6.90452135876e-07 9.73107600952e-07 -1.20990696829e-05)
(7.79864881292e-07 8.58122931159e-07 -1.15607988466e-05)
(8.46236938939e-07 7.41506411657e-07 -1.09978776341e-05)
(8.92958406981e-07 6.28298591259e-07 -1.0442300554e-05)
(9.23980464663e-07 5.21382726883e-07 -9.91658445952e-06)
(9.42810442317e-07 4.22361745655e-07 -9.43505514484e-06)
(9.53169256327e-07 3.31505800776e-07 -9.01224606118e-06)
(9.58534822401e-07 2.47448014008e-07 -8.65913653438e-06)
(9.56981701543e-07 1.70138552577e-07 -8.37976749267e-06)
(9.56068067995e-07 9.90751072055e-08 -8.17728871536e-06)
(9.50669620806e-07 3.22829954496e-08 -8.04845101806e-06)
(5.18981826168e-08 6.45480208301e-07 -4.41183321696e-06)
(1.3595659529e-07 6.21336571655e-07 -4.33376493953e-06)
(2.15402329164e-07 5.8212362423e-07 -4.21549189155e-06)
(2.81581313526e-07 5.30952871536e-07 -4.07739235517e-06)
(3.33344914914e-07 4.71891544481e-07 -3.91390918813e-06)
(3.70868788267e-07 4.0956342279e-07 -3.73230639938e-06)
(3.95553576629e-07 3.47690609503e-07 -3.54290310938e-06)
(4.09767752309e-07 2.88998019661e-07 -3.35661042356e-06)
(4.15975339485e-07 2.35071122671e-07 -3.18040201296e-06)
(4.16486832193e-07 1.86693048674e-07 -3.01845382443e-06)
(4.1362675846e-07 1.43828766784e-07 -2.87612356339e-06)
(4.09376944884e-07 1.05474468938e-07 -2.7570375697e-06)
(4.03268568725e-07 7.17721036857e-08 -2.66193981325e-06)
(3.98389699976e-07 4.14989597321e-08 -2.59433709169e-06)
(3.94112718911e-07 1.29455285723e-08 -2.54744501249e-06)
(-3.78698385522e-08 -1.31691945377e-06 -4.54361330253e-05)
(-1.11258660569e-07 -1.29308010026e-06 -4.5043169827e-05)
(-1.832479693e-07 -1.25196182902e-06 -4.43163813087e-05)
(-2.52529134308e-07 -1.19993023839e-06 -4.33020330555e-05)
(-3.17452724513e-07 -1.13813354212e-06 -4.20535493602e-05)
(-3.77805646311e-07 -1.065146416e-06 -4.06193640347e-05)
(-4.33379926645e-07 -9.81670580866e-07 -3.90603155304e-05)
(-4.83547771129e-07 -8.88481691259e-07 -3.74603892744e-05)
(-5.27209453847e-07 -7.86462754812e-07 -3.59124565279e-05)
(-5.63094200687e-07 -6.76437911891e-07 -3.44963913421e-05)
(-5.90141847236e-07 -5.59080962116e-07 -3.32690284151e-05)
(-6.07470784384e-07 -4.36032850012e-07 -3.22695790773e-05)
(-6.15982473544e-07 -3.09743231618e-07 -3.15215025242e-05)
(-6.19171080165e-07 -1.84931572514e-07 -3.10334520569e-05)
(-6.21142409808e-07 -6.22638402054e-08 -3.07896305e-05)
(-3.93818819672e-08 -1.18660569309e-06 -4.4348282616e-05)
(-1.16477368334e-07 -1.16653294421e-06 -4.39801191319e-05)
(-1.88601871142e-07 -1.12203786156e-06 -4.32372357483e-05)
(-2.55806401525e-07 -1.07044760768e-06 -4.22112203864e-05)
(-3.17639262768e-07 -1.00933393671e-06 -4.09517627893e-05)
(-3.7392622726e-07 -9.37363416928e-07 -3.95077532291e-05)
(-4.24146419661e-07 -8.55285449756e-07 -3.79441135263e-05)
(-4.67249569845e-07 -7.64060099483e-07 -3.63498882565e-05)
(-5.01826072546e-07 -6.65040378237e-07 -3.48190917923e-05)
(-5.26510250713e-07 -5.5993559268e-07 -3.34279406312e-05)
(-5.40473707949e-07 -4.50925084075e-07 -3.22273518519e-05)
(-5.43613345603e-07 -3.41385161993e-07 -3.12520912597e-05)
(-5.38795019382e-07 -2.35424026297e-07 -3.0521535404e-05)
(-5.31624986557e-07 -1.37174507582e-07 -3.00431017185e-05)
(-5.28549748365e-07 -4.46108887288e-08 -2.98040770436e-05)
(-3.93181306636e-08 -1.06719297586e-06 -4.29232113285e-05)
(-1.15101337507e-07 -1.04174996817e-06 -4.25172446571e-05)
(-1.84274516549e-07 -9.96934882095e-07 -4.17627012219e-05)
(-2.48181117427e-07 -9.45368896834e-07 -4.07289283362e-05)
(-3.06023640135e-07 -8.85067197763e-07 -3.94638170815e-05)
(-3.57688374182e-07 -8.14657762763e-07 -3.80175454636e-05)
(-4.02132503438e-07 -7.34965689713e-07 -3.64612153188e-05)
(-4.37965338634e-07 -6.47339524147e-07 -3.48870383248e-05)
(-4.63760978061e-07 -5.53832854652e-07 -3.33868048732e-05)
(-4.78613046872e-07 -4.57021478129e-07 -3.2030909894e-05)
(-4.82583886e-07 -3.59915782534e-07 -3.0863876422e-05)
(-4.7674907424e-07 -2.66240003806e-07 -2.99156456433e-05)
(-4.65454959489e-07 -1.79757429547e-07 -2.92019919963e-05)
(-4.54406647541e-07 -1.02898769287e-07 -2.87285389023e-05)
(-4.49760107038e-07 -3.31378791743e-08 -2.84857629078e-05)
(-3.82140773255e-08 -9.29594488595e-07 -4.0842941838e-05)
(-1.12258379818e-07 -9.03807922301e-07 -4.04394817664e-05)
(-1.78077183623e-07 -8.61223500667e-07 -3.96904510587e-05)
(-2.3741600229e-07 -8.1170425711e-07 -3.86713804391e-05)
(-2.90110922659e-07 -7.54378705012e-07 -3.74259636631e-05)
(-3.35735798688e-07 -6.87899589927e-07 -3.60049178331e-05)
(-3.73104649854e-07 -6.13301748679e-07 -3.44833770837e-05)
(-4.00831784161e-07 -5.32392827109e-07 -3.29537769722e-05)
(-4.17860966381e-07 -4.47842943558e-07 -3.1503382461e-05)
(-4.2406022214e-07 -3.62719118872e-07 -3.01959581886e-05)
(-4.20451213996e-07 -2.80135296689e-07 -2.90699758897e-05)
(-4.08958918739e-07 -2.03341308975e-07 -2.81514227955e-05)
(-3.94895944092e-07 -1.35110517578e-07 -2.74549017341e-05)
(-3.83520839767e-07 -7.62650006644e-08 -2.69859460417e-05)
(-3.78906561027e-07 -2.44338532602e-08 -2.67350927383e-05)
(-3.57846941934e-08 -7.90211397539e-07 -3.79585623312e-05)
(-1.04939179166e-07 -7.69154676765e-07 -3.7543998036e-05)