/*--------------------------------*- C++ -*----------------------------------*\
| =========                 |                                                 |
| \\      /  F ield         | foam-extend: Open Source CFD                    |
|  \\    /   O peration     | Version:     4.1                                |
|   \\  /    A nd           | Web:         http://www.foam-extend.org         |
|    \\/     M anipulation  |                                                 |
\*---------------------------------------------------------------------------*/
FoamFile
{
    version     2.0;
    format      ascii;
    class       vectorField;
    location    "1";
    object      solidsCellD_iteration10;
}
// * * * * * * * * * * * * * * * * * * * * * * * * * * * * * * * * * * * * * //


1050
(
(1.5381639244e-07 8.09199552868e-07 -3.78149241539e-05)
(4.29816670659e-07 7.80737206364e-07 -3.74999527337e-05)
(7.00404169355e-07 7.25375323859e-07 -3.69070475557e-05)
(9.52470307544e-07 6.47400899349e-07 -3.60765199959e-05)
(1.18368456186e-06 5.52955166519e-07 -3.50510102747e-05)
(1.38835189981e-06 4.4912073586e-07 -3.38719686118e-05)
(1.55976268923e-06 3.44259283046e-07 -3.25903336633e-05)
(1.69295762377e-06 2.48099190388e-07 -3.12750756976e-05)
(1.78948899415e-06 1.68771727002e-07 -3.0003688859e-05)
(1.85696255019e-06 1.10149883398e-07 -2.88436013143e-05)
(1.90484846745e-06 7.16542454342e-08 -2.78430671189e-05)
(1.94095423267e-06 4.87963235763e-08 -2.70327103239e-05)
(1.96942505597e-06 3.49026493983e-08 -2.64289146203e-05)
(1.99115228701e-06 2.25997196995e-08 -2.60360208492e-05)
(2.00142732486e-06 7.65080821993e-09 -2.58454331465e-05)
(1.62222609961e-07 1.01923697713e-06 -3.70821608364e-05)
(4.53010351665e-07 9.82716131628e-07 -3.67802543641e-05)
(7.39681766894e-07 9.16144167467e-07 -3.61751295944e-05)
(1.00379549114e-06 8.23455269905e-07 -3.53386765115e-05)
(1.24407628804e-06 7.13084953233e-07 -3.43090900467e-05)
(1.45483468885e-06 5.94175944522e-07 -3.31277792974e-05)
(1.63033319243e-06 4.76618995233e-07 -3.18465528515e-05)
(1.76720923968e-06 3.71176023832e-07 -3.05381782012e-05)
(1.86910745702e-06 2.85321101047e-07 -2.92816876459e-05)
(1.9452010822e-06 2.20789599257e-07 -2.81420083032e-05)
(2.00541429608e-06 1.7427319627e-07 -2.71628254202e-05)
(2.05666350048e-06 1.38782461563e-07 -2.63708438475e-05)
(2.10074395049e-06 1.06069023611e-07 -2.57801523382e-05)
(2.13577943684e-06 6.88683185657e-08 -2.53944265329e-05)
(2.15378431456e-06 2.48935149241e-08 -2.52070400001e-05)
(1.81270986573e-07 1.36602419122e-06 -3.59900449515e-05)
(5.00002642007e-07 1.32983270609e-06 -3.56474546635e-05)
(8.135055306e-07 1.25091504665e-06 -3.50378715206e-05)
(1.10186057504e-06 1.14043946695e-06 -3.41958751597e-05)
(1.36169108625e-06 1.00897818661e-06 -3.31643405659e-05)
(1.58779184234e-06 8.67417610225e-07 -3.19845850045e-05)
(1.77517985168e-06 7.27063157464e-07 -3.07121662186e-05)
(1.92248715306e-06 5.99593921542e-07 -2.94220478444e-05)
(2.03551021182e-06 4.91981066433e-07 -2.81913466883e-05)
(2.1244463876e-06 4.0431635433e-07 -2.70802218155e-05)
(2.19880537857e-06 3.31627635715e-07 -2.61272114016e-05)
(2.26412774322e-06 2.66029289597e-07 -2.53554712841e-05)
(2.32036980994e-06 1.99564642971e-07 -2.47771216841e-05)
(2.36518524666e-06 1.25858846729e-07 -2.43957328679e-05)
(2.38766975345e-06 4.46905127234e-08 -2.42055515467e-05)
(2.03740246903e-07 1.87244072265e-06 -3.43229622296e-05)
(5.59172102339e-07 1.82805761238e-06 -3.39987369318e-05)
(9.1289436828e-07 1.7321890116e-06 -3.33909385243e-05)
(1.23509856871e-06 1.59607064038e-06 -3.25603461964e-05)
(1.52380993536e-06 1.43293889261e-06 -3.15440622666e-05)
(1.77315658954e-06 1.25609618636e-06 -3.03846397454e-05)
(1.97937899572e-06 1.07885552696e-06 -2.91402210375e-05)
(2.14317358096e-06 9.14034172999e-07 -2.78857421613e-05)
(2.27202522769e-06 7.68466095592e-07 -2.66946506125e-05)
(2.37652669896e-06 6.41402374159e-07 -2.56218053373e-05)
(2.4654672139e-06 5.27323952448e-07 -2.47009020071e-05)
(2.54329696368e-06 4.18602416753e-07 -2.39522243726e-05)
(2.60872271113e-06 3.08225799358e-07 -2.33867745127e-05)
(2.65972130242e-06 1.90602680904e-07 -2.30081383936e-05)
(2.68560736111e-06 6.67583901601e-08 -2.28118076116e-05)
(2.35765392576e-07 2.47963619518e-06 -3.20138326016e-05)
(6.40433931536e-07 2.42673003778e-06 -3.16795171417e-05)
(1.04401096635e-06 2.31024255771e-06 -3.10778465852e-05)
(1.40858877327e-06 2.1430239194e-06 -3.02694269983e-05)
(1.73250621106e-06 1.9410857436e-06 -2.92866797578e-05)
(2.00980235227e-06 1.72022488205e-06 -2.81713971835e-05)
(2.23827192208e-06 1.49585033196e-06 -2.69817077636e-05)
(2.42057198222e-06 1.28189649475e-06 -2.57893048544e-05)
(2.56537202762e-06 1.08562563146e-06 -2.46612709276e-05)
(2.68323840983e-06 9.06634584678e-07 -2.36459382473e-05)
(2.7823232669e-06 7.4014673088e-07 -2.27722121103e-05)
(2.86676023241e-06 5.79862638603e-07 -2.20580006756e-05)
(2.93533974044e-06 4.20099757271e-07 -2.15148048115e-05)
(2.98726811979e-06 2.56048922341e-07 -2.11469466835e-05)
(3.0127557023e-06 8.89194980953e-08 -2.09500834693e-05)
(2.72729918545e-07 3.14199945593e-06 -2.8806269054e-05)
(7.32845677008e-07 3.07837879261e-06 -2.84866220672e-05)
(1.19196456588e-06 2.93404876149e-06 -2.79098458487e-05)
(1.60231878077e-06 2.73003016885e-06 -2.71524691807e-05)
(1.96339762722e-06 2.48250549984e-06 -2.62387055531e-05)
(2.26905305678e-06 2.21072074452e-06 -2.52073537002e-05)
(2.51888160486e-06 1.93176395872e-06 -2.41131356581e-05)
(2.71723506213e-06 1.66075634891e-06 -2.3020945191e-05)
(2.87362938151e-06 1.40601676636e-06 -2.19890894359e-05)
(2.99857725415e-06 1.16860171619e-06 -2.10587917602e-05)
(3.10011607634e-06 9.45390144812e-07 -2.02550035881e-05)
(3.18298069868e-06 7.31746627133e-07 -1.95933809986e-05)
(3.24721286102e-06 5.23215468999e-07 -1.9085414779e-05)
(3.2941216087e-06 3.15262366542e-07 -1.87367366397e-05)
(3.31561653867e-06 1.08831149364e-07 -1.8543436113e-05)
(3.10806383363e-07 3.75153360169e-06 -2.45327197852e-05)
(8.21667604282e-07 3.67383974474e-06 -2.42184771562e-05)
(1.33091800154e-06 3.50158052223e-06 -2.37073761681e-05)
(1.78189173721e-06 3.25876055339e-06 -2.30360122963e-05)
(2.17273872238e-06 2.96587340431e-06 -2.22350600227e-05)
(2.49895405065e-06 2.64365257566e-06 -2.13350611325e-05)
(2.76164821158e-06 2.31113395912e-06 -2.03846773823e-05)
(2.96683287836e-06 1.98449288046e-06 -1.94389086698e-05)
(3.12472092973e-06 1.67349265075e-06 -1.8545096441e-05)
(3.24602363293e-06 1.38138826718e-06 -1.77365836062e-05)
(3.33944845637e-06 1.10721633012e-06 -1.70353594981e-05)
(3.41124944219e-06 8.47790426103e-07 -1.6455776587e-05)
(3.46334419638e-06 5.99444693924e-07 -1.60079396476e-05)
(3.49940721707e-06 3.57540663868e-07 -1.56970910123e-05)
(3.51340970899e-06 1.22844624385e-07 -1.55190068228e-05)
(3.35426387316e-07 4.1340540507e-06 -1.89864780681e-05)
(8.73175896214e-07 4.0390989741e-06 -1.87378449992e-05)
(1.40879695523e-06 3.84247021321e-06 -1.83013986427e-05)
(1.87506798661e-06 3.56997130477e-06 -1.77656551367e-05)
(2.2730780238e-06 3.24308247026e-06 -1.71270832887e-05)
(2.59847138678e-06 2.88503555224e-06 -1.64160048164e-05)
(2.85447325796e-06 2.51547439225e-06 -1.566922473e-05)
(3.04847729146e-06 2.15118182669e-06 -1.49284930857e-05)
(3.1913033312e-06 1.80310859461e-06 -1.42279618758e-05)
(3.29408985527e-06 1.47655926124e-06 -1.3591676649e-05)
(3.36680529644e-06 1.17254257532e-06 -1.3038016773e-05)
(3.41763803343e-06 8.88815260011e-07 -1.2580083337e-05)
(3.45037005118e-06 6.22058077666e-07 -1.22256558715e-05)
(3.47026688056e-06 3.67480029838e-07 -1.19774057003e-05)
(3.47417991061e-06 1.25804722488e-07 -1.18294607006e-05)
(3.17635388981e-07 3.88167238656e-06 -1.21568689665e-05)
(8.09796433941e-07 3.78045698422e-06 -1.19616191748e-05)
(1.29747746456e-06 3.58313659126e-06 -1.16878868804e-05)
(1.71683819316e-06 3.31718285739e-06 -1.13329434424e-05)
(2.06637720142e-06 3.00177716825e-06 -1.09201587227e-05)
(2.34468238188e-06 2.65865271206e-06 -1.04601340434e-05)
(2.55610727372e-06 2.30621972326e-06 -9.97895430275e-06)
(2.70862898411e-06 1.95992280835e-06 -9.50316240432e-06)
(2.81287369476e-06 1.63025465041e-06 -9.05327744407e-06)
(2.87968235757e-06 1.32314276735e-06 -8.64330004394e-06)
(2.91946805304e-06 1.0405399642e-06 -8.28558444276e-06)
(2.94124983185e-06 7.80665186098e-07 -7.9895482757e-06)
(2.94964210729e-06 5.41005757823e-07 -7.75933693086e-06)
(2.95055716965e-06 3.16679400062e-07 -7.59593320737e-06)
(2.94375096746e-06 1.0829971407e-07 -7.49269773628e-06)
(2.00347550213e-07 2.43442985836e-06 -4.38580839785e-06)
(5.02724150799e-07 2.35294411712e-06 -4.31816597357e-06)
(7.98912966057e-07 2.2157867035e-06 -4.20926289674e-06)
(1.04839033109e-06 2.03532899668e-06 -4.0833611236e-06)
(1.2492604876e-06 1.82553079792e-06 -3.93402904916e-06)
(1.40125907484e-06 1.60039901806e-06 -3.76927206172e-06)
(1.50835386261e-06 1.37230890832e-06 -3.59765884614e-06)
(1.57709766229e-06 1.15139705584e-06 -3.42884324893e-06)
(1.61533686041e-06 9.44511588277e-07 -3.26970308838e-06)
(1.63102879454e-06 7.554541559e-07 -3.12467065137e-06)
(1.63191219192e-06 5.85410047948e-07 -2.99835535892e-06)
(1.62467353307e-06 4.32958117141e-07 -2.89429468975e-06)
(1.61305361859e-06 2.96404259645e-07 -2.81281443316e-06)
(1.60040488511e-06 1.71964259309e-07 -2.7550216253e-06)
(1.59143385989e-06 5.89762599938e-08 -2.71549784507e-06)
(9.31149101211e-08 2.54525670891e-07 -3.79703172236e-05)
(2.63069114137e-07 2.45217240108e-07 -3.76476343142e-05)
(4.28450870811e-07 2.20904668272e-07 -3.70557983266e-05)
(5.83428202848e-07 1.85153081752e-07 -3.62279992996e-05)
(7.26007000452e-07 1.41506936424e-07 -3.52056783515e-05)
(8.52309029286e-07 9.47912368707e-08 -3.40286109948e-05)
(9.57968561995e-07 4.98796602929e-08 -3.27468630466e-05)
(1.04046559571e-06 1.2006030875e-08 -3.14304715281e-05)
(1.10174292611e-06 -1.47926447032e-08 -3.0158065919e-05)
(1.1472424312e-06 -2.89652306965e-08 -2.8997302466e-05)
(1.18305714429e-06 -3.14493601998e-08 -2.79960080407e-05)
(1.21373449915e-06 -2.56673878131e-08 -2.71848130244e-05)
(1.24069253586e-06 -1.62616042708e-08 -2.65806694463e-05)
(1.2638262685e-06 -8.41647875813e-09 -2.61885511662e-05)
(1.28137092734e-06 -2.53429539048e-09 -2.59983246743e-05)
(9.78649325732e-08 3.96796842659e-07 -3.72257556907e-05)
(2.76997670836e-07 3.82044003202e-07 -3.69255338178e-05)
(4.53508000904e-07 3.52500270342e-07 -3.63225137295e-05)
(6.16592683635e-07 3.08285615578e-07 -3.54872762487e-05)
(7.65485327231e-07 2.55519697964e-07 -3.44579862036e-05)
(8.96190758442e-07 2.00202679386e-07 -3.32748770531e-05)
(1.00510174045e-06 1.48033064195e-07 -3.19897949734e-05)
(1.0908071858e-06 1.04683225521e-07 -3.0676797313e-05)
(1.15643987726e-06 7.36384609633e-08 -2.94160998969e-05)
(1.20816419488e-06 5.50568793003e-08 -2.82730217814e-05)
(1.25215961543e-06 4.62247840904e-08 -2.72909854993e-05)
(1.29233259915e-06 4.21282750939e-08 -2.64969268152e-05)
(1.32843837438e-06 3.70397384755e-08 -2.59051148477e-05)
(1.35908160873e-06 2.64112771247e-08 -2.55193980613e-05)
(1.38015632098e-06 1.01962559568e-08 -2.53316274404e-05)
(1.09531157547e-07 6.2997619579e-07 -3.61591233409e-05)
(3.06529125411e-07 6.17922276108e-07 -3.58183170167e-05)
(4.99482839103e-07 5.7946359677e-07 -3.52097408447e-05)
(6.77082351934e-07 5.22593279305e-07 -3.43675915068e-05)
(8.37422455514e-07 4.54647287369e-07 -3.33345264059e-05)
(9.76922403239e-07 3.83184732384e-07 -3.21509492867e-05)
(1.09280730727e-06 3.15054780858e-07 -3.08727675901e-05)
(1.18499541832e-06 2.56543126345e-07 -2.95762831869e-05)
(1.25775714908e-06 2.10680507569e-07 -2.83398821948e-05)
(1.31757449961e-06 1.76448614656e-07 -2.72242373698e-05)
(1.37015340306e-06 1.49991449341e-07 -2.62676821873e-05)
(1.41848130813e-06 1.25747850302e-07 -2.54935956975e-05)
(1.46100702571e-06 9.81509790128e-08 -2.49139853141e-05)
(1.49668510652e-06 6.36223501368e-08 -2.45322865374e-05)
(1.51860654413e-06 2.26136499469e-08 -2.43412666402e-05)
(1.24290831333e-07 9.80035795834e-07 -3.45124520816e-05)
(3.44696728349e-07 9.62441915115e-07 -3.41861079189e-05)
(5.62890102991e-07 9.10876791305e-07 -3.35799348224e-05)
(7.62087376891e-07 8.35132586649e-07 -3.27486387257e-05)
(9.40603313286e-07 7.44173506046e-07 -3.17305220995e-05)
(1.09476235486e-06 6.47332502693e-07 -3.05669229325e-05)
(1.22258873481e-06 5.52897509098e-07 -2.93165209935e-05)
(1.32524270842e-06 4.67969525165e-07 -2.80554267385e-05)
(1.40787283893e-06 3.95491884043e-07 -2.68582059777e-05)
(1.47702786512e-06 3.33921178754e-07 -2.57802279048e-05)
(1.53789904018e-06 2.7907954808e-07 -2.48550363791e-05)
(1.5928693246e-06 2.25651569151e-07 -2.4103190567e-05)
(1.63956287677e-06 1.6870891074e-07 -2.35359955304e-05)
(1.67772386158e-06 1.05408185149e-07 -2.31569697023e-05)
(1.69940218128e-06 3.63025683565e-08 -2.29598313245e-05)
(1.44675307696e-07 1.40191514082e-06 -3.22126213776e-05)
(3.97480745181e-07 1.37596184512e-06 -3.18781968134e-05)
(6.48145693271e-07 1.30918358945e-06 -3.12777443911e-05)
(8.7476514411e-07 1.21073895562e-06 -3.04692177317e-05)
(1.07592082332e-06 1.09198503379e-06 -2.94850179052e-05)
(1.24799523071e-06 9.63730301297e-07 -2.83658508162e-05)
(1.38999025641e-06 8.35761837313e-07 -2.71703357056e-05)
(1.50421802508e-06 7.16065028287e-07 -2.59710866718e-05)
(1.59642484245e-06 6.08001385903e-07 -2.48361416071e-05)
(1.67304857431e-06 5.10385737679e-07 -2.38144163699e-05)
(1.73891876413e-06 4.19617424615e-07 -2.29348285393e-05)
(1.79637703029e-06 3.31307169098e-07 -2.22154299839e-05)
(1.84317909761e-06 2.41371399276e-07 -2.16681927953e-05)
(1.88048808101e-06 1.47676779744e-07 -2.12977440891e-05)
(1.89940996125e-06 5.01074866273e-08 -2.10986388483e-05)
(1.67990103546e-07 1.85885981984e-06 -2.89971868806e-05)
(4.56932454765e-07 1.8251210561e-06 -2.86788199566e-05)
(7.43418183785e-07 1.73860370587e-06 -2.81008346123e-05)
(9.99331618221e-07 1.61410510008e-06 -2.7342422585e-05)
(1.22429114371e-06 1.46330679079e-06 -2.64259860206e-05)
(1.41435771331e-06 1.29914310573e-06 -2.53899079633e-05)
(1.56969107467e-06 1.13260517382e-06 -2.4289344137e-05)
(1.69353589142e-06 9.72663629397e-07 -2.31898262304e-05)
(1.79205562082e-06 8.23615902194e-07 -2.21502952917e-05)
(1.87164812658e-06 6.85458266579e-07 -2.12124681367e-05)
(1.93723316633e-06 5.55822257757e-07 -2.04016341679e-05)
(1.99175443874e-06 4.31425527875e-07 -1.97337671842e-05)
(2.03378683078e-06 3.08896429067e-07 -1.92208854108e-05)
(2.06644930548e-06 1.86290537584e-07 -1.88689891222e-05)
(2.08022907389e-06 6.26591256163e-08 -1.86738629507e-05)
(1.91509939783e-07 2.2712906633e-06 -2.46865904857e-05)
(5.12786398202e-07 2.22880877717e-06 -2.43676635904e-05)
(8.29872180133e-07 2.12259511128e-06 -2.38583223936e-05)
(1.11078067774e-06 1.97180975534e-06 -2.31857763776e-05)
(1.35369683447e-06 1.78991798511e-06 -2.23821793281e-05)
(1.55571990212e-06 1.59111336905e-06 -2.14775933155e-05)
(1.71798582847e-06 1.38758383763e-06 -2.05211285089e-05)
(1.84466330927e-06 1.18921942495e-06 -1.95682157644e-05)
(1.94228246503e-06 1.00151580288e-06 -1.86665464521e-05)
(2.01742517294e-06 8.26097971153e-07 -1.78498079635e-05)
(2.07568031162e-06 6.62089417003e-07 -1.71407189548e-05)
(2.1212181052e-06 5.0711135713e-07 -1.65544536179e-05)
(2.15369175478e-06 3.58243408074e-07 -1.61017764524e-05)
(2.17822436935e-06 2.1337262314e-07 -1.5787860085e-05)
(2.18478155401e-06 7.12352733505e-08 -1.56083701775e-05)
(2.04369767674e-07 2.5123639015e-06 -1.90615966812e-05)
(5.39331845603e-07 2.45866404776e-06 -1.88117436602e-05)
(8.70289805584e-07 2.33732899915e-06 -1.837523814e-05)
(1.15772774634e-06 2.16767239252e-06 -1.78383278177e-05)
(1.40191633017e-06 1.96438003189e-06 -1.71972173377e-05)
(1.60037078574e-06 1.74263869463e-06 -1.64821932945e-05)
(1.75536483456e-06 1.51517828157e-06 -1.57301778252e-05)
(1.87195563748e-06 1.29237752792e-06 -1.49830780031e-05)
(1.95703390703e-06 1.0807306522e-06 -1.42751133441e-05)
(2.0175508549e-06 8.83289902346e-07 -1.36305356314e-05)
(2.0600829895e-06 7.00394004724e-07 -1.30686335959e-05)
(2.09009798958e-06 5.30175982838e-07 -1.26034720648e-05)
(2.10819743564e-06 3.70059914485e-07 -1.2243304105e-05)
(2.12087218736e-06 2.17923780948e-07 -1.19903489468e-05)
(2.1187338701e-06 7.22740256318e-08 -1.18389467505e-05)
(1.8840852093e-07 2.31711755895e-06 -1.20979424143e-05)
(4.90137367875e-07 2.25727531388e-06 -1.19006269269e-05)
(7.84402277373e-07 2.13697890596e-06 -1.16272130786e-05)
(1.03592098825e-06 1.97427833116e-06 -1.12712964971e-05)
(1.24413204378e-06 1.78158604544e-06 -1.08567456411e-05)
(1.40786750944e-06 1.57302723807e-06 -1.0393947808e-05)
(1.53052604652e-06 1.35999618055e-06 -9.90884416321e-06)
(1.61728905858e-06 1.15199166283e-06 -9.42796622365e-06)
(1.67489081816e-06 9.55240336277e-07 -8.9718358988e-06)
(1.71011141903e-06 7.73173000476e-07 -8.55469276243e-06)
(1.72973031463e-06 6.06624521246e-07 -8.18974128159e-06)
(1.73948805992e-06 4.53947374987e-07 -7.88696458046e-06)
(1.74044349703e-06 3.13556193475e-07 -7.65070552926e-06)
(1.74001748655e-06 1.83019468321e-07 -7.4818089548e-06)
(1.7294649837e-06 6.03039423569e-08 -7.37583098822e-06)
(1.01366615413e-07 1.27546545588e-06 -4.0893059043e-06)
(2.63978669572e-07 1.22964429484e-06 -4.0228011541e-06)
(4.18627450337e-07 1.15395685472e-06 -3.91722713987e-06)
(5.47760358267e-07 1.05487548571e-06 -3.79444539707e-06)
(6.49768568215e-07 9.40453782745e-07 -3.64894399248e-06)
(7.24817161324e-07 8.18804998505e-07 -3.48782092765e-06)
(7.75294281569e-07 6.96887088714e-07 -3.31934680956e-06)
(8.05176406687e-07 5.80250966404e-07 -3.1528643467e-06)
(8.19043296805e-07 4.72491717919e-07 -2.99503986255e-06)
(8.21486803372e-07 3.75438154003e-07 -2.85035151461e-06)
(8.16970771635e-07 2.89332899523e-07 -2.72375233355e-06)
(8.0918733409e-07 2.12842899141e-07 -2.61878924171e-06)
(7.9927550842e-07 1.45128252646e-07 -2.53597463762e-06)
(7.90391228117e-07 8.38737830279e-08 -2.47716004819e-06)
(7.82184059851e-07 2.68972821154e-08 -2.43826243267e-06)
(2.82015824769e-08 -4.31618653983e-07 -3.81475978107e-05)
(7.87190844027e-08 -4.30672489055e-07 -3.78237983864e-05)
(1.27442416342e-07 -4.24802036589e-07 -3.72345201081e-05)
(1.72921336326e-07 -4.20367177113e-07 -3.64082648408e-05)
(2.14149196157e-07 -4.15763826143e-07 -3.53869260932e-05)
(2.49542020335e-07 -4.0783737396e-07 -3.42100651013e-05)
(2.77234339535e-07 -3.94357554511e-07 -3.29278357296e-05)
(2.96541542062e-07 -3.73137698512e-07 -3.16106607687e-05)
(3.09069595522e-07 -3.42721863061e-07 -3.03372762194e-05)
(3.17911030773e-07 -3.02759783603e-07 -2.91751764758e-05)
(3.26176754808e-07 -2.53993457354e-07 -2.81720133055e-05)
(3.3604160057e-07 -1.98798473618e-07 -2.73589075692e-05)
(3.47095186045e-07 -1.40494539997e-07 -2.67532327091e-05)
(3.57296815694e-07 -8.37936813969e-08 -2.63598836177e-05)
(3.66857188468e-07 -2.81465826026e-08 -2.61674726615e-05)
(3.0174338226e-08 -3.07949752984e-07 -3.73793893186e-05)
(8.47803291619e-08 -3.09412991861e-07 -3.70789866672e-05)
(1.40526711023e-07 -3.04226989633e-07 -3.64771262879e-05)
(1.91585494287e-07 -3.03891247999e-07 -3.56415357235e-05)
(2.37793483226e-07 -3.03716789754e-07 -3.46112241399e-05)
(2.7744612047e-07 -3.00076509265e-07 -3.3426180337e-05)
(3.0915050581e-07 -2.90406324161e-07 -3.21389517166e-05)
(3.32964311303e-07 -2.72506705938e-07 -3.08241170725e-05)
(3.51248817737e-07 -2.45461639233e-07 -2.95619772364e-05)
(3.67538221159e-07 -2.09977683732e-07 -2.84175601211e-05)
(3.84977163692e-07 -1.68254507634e-07 -2.7433950902e-05)
(4.05212236562e-07 -1.24086914087e-07 -2.66385543439e-05)
(4.26204874138e-07 -8.20415127155e-08 -2.60457814968e-05)
(4.44238696477e-07 -4.59118148535e-08 -2.56596396271e-05)
(4.56958583109e-07 -1.42606629437e-08 -2.54707331476e-05)
(3.61913133522e-08 -1.43919109049e-07 -3.63166075166e-05)
(1.0083580076e-07 -1.40195043743e-07 -3.59815861673e-05)
(1.65734634166e-07 -1.39777185826e-07 -3.53718048881e-05)
(2.24989118738e-07 -1.46109270661e-07 -3.45288075735e-05)
(2.78203146046e-07 -1.5417285487e-07 -3.34935246838e-05)
(3.23743138621e-07 -1.5946958159e-07 -3.23064631483e-05)
(3.60895675953e-07 -1.5888187141e-07 -3.10244137246e-05)
(3.9051814954e-07 -1.50081107279e-07 -2.97242953226e-05)
(4.15498767175e-07 -1.32699463346e-07 -2.84847683054e-05)
(4.39297631289e-07 -1.08393505341e-07 -2.73664025235e-05)
(4.64495370647e-07 -8.02623689013e-08 -2.64072927521e-05)
(4.91884888384e-07 -5.24878768871e-08 -2.56311943557e-05)
(5.18267316239e-07 -2.94899806043e-08 -2.50501472651e-05)
(5.403317213e-07 -1.37642276934e-08 -2.46676553483e-05)
(5.54496695948e-07 -3.56702340764e-09 -2.44751675942e-05)
(4.41607441674e-08 8.87735830948e-08 -3.46892372557e-05)
(1.21307599361e-07 8.94690417304e-08 -3.43601236029e-05)
(1.99855886762e-07 8.16183120355e-08 -3.37525163642e-05)
(2.71598116186e-07 6.45308163463e-08 -3.29197044569e-05)
(3.35711614234e-07 4.32786679412e-08 -3.18989060776e-05)
(3.90731146775e-07 2.33007265786e-08 -3.07313855931e-05)
(4.3636492023e-07 8.35143788602e-09 -2.94765874804e-05)
(4.74040700572e-07 9.93173639459e-10 -2.8211132785e-05)
(5.06881668337e-07 1.29582381384e-09 -2.7009884585e-05)
(5.38072832769e-07 7.16077003105e-09 -2.5928207298e-05)
(5.69637950679e-07 1.52884088538e-08 -2.49995180513e-05)
(6.01827372402e-07 2.17940376364e-08 -2.42446973013e-05)
(6.30668811327e-07 2.29211915052e-08 -2.36750635533e-05)
(6.53706614144e-07 1.73487744145e-08 -2.32943640998e-05)
(6.67732507378e-07 6.56002686567e-09 -2.30943647707e-05)
(5.5218532798e-08 3.57414241785e-07 -3.23877269944e-05)
(1.50651223204e-07 3.51389052239e-07 -3.20494276965e-05)
(2.47650744266e-07 3.34465026512e-07 -3.14489327088e-05)
(3.35508855984e-07 3.04204399154e-07 -3.06393007399e-05)
(4.1325416824e-07 2.66999091402e-07 -2.96528765008e-05)
(4.79640915217e-07 2.28809014235e-07 -2.85302377071e-05)
(5.34835441528e-07 1.94034450011e-07 -2.73305894273e-05)
(5.80725065964e-07 1.65553858334e-07 -2.61269220199e-05)
(6.20487545068e-07 1.43542577394e-07 -2.4987540385e-05)
(6.56975963152e-07 1.2611863882e-07 -2.39614423024e-05)
(6.91870210397e-07 1.10461433422e-07 -2.30776066603e-05)
(7.25398621801e-07 9.3464726238e-08 -2.23544790347e-05)
(7.53542503258e-07 7.21027170666e-08 -2.18041226255e-05)
(7.75297180095e-07 4.60108285137e-08 -2.1431756814e-05)
(7.8785104722e-07 1.58553159088e-08 -2.1230025133e-05)
(6.78757173981e-08 6.43018734064e-07 -2.91620293778e-05)
(1.83902186151e-07 6.31653644522e-07 -2.88433706971e-05)
(3.01637919156e-07 6.03391059125e-07 -2.82647122414e-05)
(4.06852094167e-07 5.57931640883e-07 -2.75047342616e-05)
(4.99236188432e-07 5.02169949694e-07 -2.6585575483e-05)
(5.77294467198e-07 4.42848377787e-07 -2.55457805764e-05)
(6.41699394968e-07 3.84929109014e-07 -2.44408899219e-05)
(6.94588997634e-07 3.31756665137e-07 -2.33366633137e-05)
(7.39085288913e-07 2.84057224711e-07 -2.22921867464e-05)
(7.77822818299e-07 2.40758240344e-07 -2.13492519599e-05)
(8.1254819798e-07 1.99952076032e-07 -2.05334289874e-05)
(8.44006426737e-07 1.59388541456e-07 -1.98612978274e-05)
(8.68581399846e-07 1.16599476644e-07 -1.93451014776e-05)
(8.87200248593e-07 7.15425238948e-08 -1.89914712616e-05)
(8.97268096933e-07 2.41187915696e-08 -1.87942790427e-05)
(8.10522646955e-08 9.02864433476e-07 -2.48280110597e-05)
(2.16923840714e-07 8.8751963458e-07 -2.45086737595e-05)
(3.52601735079e-07 8.47141943857e-07 -2.39993922583e-05)
(4.73274239061e-07 7.86433839646e-07 -2.33258525236e-05)
(5.77566508698e-07 7.1228514357e-07 -2.25200922791e-05)
(6.64360773263e-07 6.32249189059e-07 -2.16124040615e-05)
(7.3474549481e-07 5.51706850638e-07 -2.06520788458e-05)
(7.91046539268e-07 4.74561912416e-07 -1.96946595602e-05)
(8.36323564725e-07 4.02340318886e-07 -1.87879047683e-05)
(8.73196019687e-07 3.35058511679e-07 -1.79656070313e-05)
(9.03919984305e-07 2.71782125351e-07 -1.7250994952e-05)
(9.30178231493e-07 2.10887093708e-07 -1.66599483143e-05)
(9.4877817335e-07 1.50334450752e-07 -1.62033829897e-05)
(9.62785073502e-07 9.01214973385e-08 -1.58867777295e-05)
(9.69285140855e-07 2.99807819879e-08 -1.57039626849e-05)
(8.90533327625e-08 1.06860341572e-06 -1.91593677371e-05)
(2.34800563417e-07 1.04856858282e-06 -1.8908344933e-05)
(3.81168186123e-07 9.99310898978e-07 -1.8472835762e-05)
(5.0842242241e-07 9.27144598149e-07 -1.79347806023e-05)
(6.16293936474e-07 8.39992150871e-07 -1.72922170616e-05)
(7.04090894311e-07 7.45343958417e-07 -1.65747610375e-05)
(7.73131566753e-07 6.49029965113e-07 -1.58194877762e-05)
(8.26056322234e-07 5.55301408546e-07 -1.50682785205e-05)
(8.65941908017e-07 4.66495628298e-07 -1.43553614175e-05)
(8.95611963078e-07 3.83597981544e-07 -1.3705197593e-05)
(9.18048085106e-07 3.0636603952e-07 -1.31377521724e-05)
(9.35749839418e-07 2.33482236792e-07 -1.26675213436e-05)
(9.45817001775e-07 1.63372060997e-07 -1.23024981759e-05)
(9.53400438701e-07 9.63132022543e-08 -1.20450268309e-05)
(9.55409931324e-07 3.17893943026e-08 -1.18895528268e-05)
(8.39221619709e-08 1.01785532544e-06 -1.21220314538e-05)
(2.20245882587e-07 9.9308998095e-07 -1.19250331622e-05)
(3.53418004439e-07 9.42157463321e-07 -1.16503463914e-05)
(4.6675918102e-07 8.71222261146e-07 -1.12940089255e-05)
(5.60448917204e-07 7.86612548934e-07 -1.0878251514e-05)
(6.33787750209e-07 6.95343331735e-07 -1.04138989886e-05)
(6.88994507228e-07 6.02361329077e-07 -9.92658006861e-06)
(7.28521473697e-07 5.11736476195e-07 -9.44268360619e-06)
(7.55365618063e-07 4.25965589218e-07 -8.98268648106e-06)
(7.72410828639e-07 3.46439932693e-07 -8.56111823985e-06)
(7.82877825493e-07 2.73248964053e-07 -8.19179940731e-06)
(7.89364830909e-07 2.05214425509e-07 -7.8846426218e-06)
(7.89453501899e-07 1.41800847605e-07 -7.64379565401e-06)
(7.90885944198e-07 8.29267776281e-08 -7.47081031047e-06)
(7.87269133349e-07 2.71992136762e-08 -7.36503065832e-06)
(4.34841120589e-08 5.47855216344e-07 -4.01902960887e-06)
(1.14678943344e-07 5.27711792037e-07 -3.95249698593e-06)
(1.82272529596e-07 4.95227565677e-07 -3.84846810854e-06)
(2.38899984535e-07 4.52321273028e-07 -3.72676931485e-06)
(2.83247134311e-07 4.02728835531e-07 -3.582824174e-06)
(3.15685747858e-07 3.5027514756e-07 -3.42315013357e-06)
(3.37312062029e-07 2.97986073278e-07 -3.25590287136e-06)
(3.50005373381e-07 2.48184318699e-07 -3.09023850487e-06)
(3.55781754563e-07 2.02340020168e-07 -2.9327336528e-06)
(3.56665578441e-07 1.61174615439e-07 -2.7879910686e-06)
(3.54728818925e-07 1.24629154618e-07 -2.6611776855e-06)
(3.51597324827e-07 9.17794246491e-08 -2.55561642323e-06)
(3.46626020939e-07 6.26702381114e-08 -2.47222160341e-06)
(3.43209485211e-07 3.6333910793e-08 -2.41345920025e-06)
(3.39153641018e-07 1.15314754241e-08 -2.37511728295e-06)
(-3.61454806852e-08 -1.23211248626e-06 -3.8334283805e-05)
(-1.07102749644e-07 -1.21014496467e-06 -3.80138251069e-05)
(-1.77186940978e-07 -1.17262100582e-06 -3.74261633749e-05)
(-2.44101948127e-07 -1.12559401279e-06 -3.66009860466e-05)
(-3.07232908464e-07 -1.06956063957e-06 -3.55798574871e-05)
(-3.66181980647e-07 -1.00305525307e-06 -3.44022415403e-05)
(-4.20777402509e-07 -9.26469506724e-07 -3.31185637575e-05)
(-4.70498916476e-07 -8.40472900233e-07 -3.17996628307e-05)
(-5.14227293066e-07 -7.45845231782e-07 -3.05245414382e-05)
(-5.50713717978e-07 -6.43176046171e-07 -2.93605754076e-05)
(-5.78938005457e-07 -5.33021946761e-07 -2.83551621885e-05)
(-5.97985571893e-07 -4.16888357484e-07 -2.75399105835e-05)
(-6.08404066821e-07 -2.97061247961e-07 -2.6932802816e-05)
(-6.13187732914e-07 -1.77896086773e-07 -2.65386919162e-05)
(-6.15270794006e-07 -5.96878840498e-08 -2.63451154553e-05)
(-3.78055026137e-08 -1.10447783844e-06 -3.75631115052e-05)
(-1.11206673625e-07 -1.08555849755e-06 -3.72619713224e-05)
(-1.79342578644e-07 -1.04564473564e-06 -3.66611083402e-05)
(-2.43563554674e-07 -9.99645921494e-07 -3.58260229692e-05)
(-3.03181167658e-07 -9.44948531977e-07 -3.47952004852e-05)
(-3.57830332023e-07 -8.80127734522e-07 -3.36087226396e-05)
(-4.07073927837e-07 -8.0561021169e-07 -3.23196939812e-05)
(-4.49982183064e-07 -7.22241995498e-07 -3.10030514505e-05)
(-4.85123055131e-07 -6.31204389779e-07 -2.97392306947e-05)
(-5.11171046667e-07 -5.33867710918e-07 -2.85930088763e-05)
(-5.27284758636e-07 -4.3209498336e-07 -2.76071862251e-05)
(-5.33210953046e-07 -3.28901827098e-07 -2.68096953183e-05)
(-5.31209752301e-07 -2.28122448979e-07 -2.62154191844e-05)
(-5.26362454854e-07 -1.33465444031e-07 -2.58283932776e-05)
(-5.23919393142e-07 -4.34606041225e-08 -2.56377547061e-05)
(-3.67153982058e-08 -9.90409416189e-07 -3.64956471896e-05)
(-1.07371672815e-07 -9.65969237441e-07 -3.6163583862e-05)
(-1.72370898695e-07 -9.26287858418e-07 -3.55533580199e-05)
(-2.3309528798e-07 -8.80862867123e-07 -3.47107220948e-05)
(-2.88693207252e-07 -8.27453678421e-07 -3.36744294603e-05)
(-3.38852231402e-07 -7.64562854617e-07 -3.24854223983e-05)
(-3.82632265567e-07 -6.92719144872e-07 -3.12012066503e-05)
(-4.18727190804e-07 -6.13094878091e-07 -2.98990539875e-05)
(-4.4567420595e-07 -5.27501129657e-07 -2.86577256149e-05)
(-4.6258471676e-07 -4.38082736715e-07 -2.75375177904e-05)
(-4.6937040628e-07 -3.47426001288e-07 -2.65762786248e-05)
(-4.66796669984e-07 -2.58888912086e-07 -2.5798162489e-05)
(-4.58445473212e-07 -1.76049101062e-07 -2.5215421835e-05)
(-4.49634727607e-07 -1.01333491692e-07 -2.48314646712e-05)
(-4.45547737424e-07 -3.26985679095e-08 -2.4637840341e-05)
(-3.51934632851e-08 -8.58309816503e-07 -3.48727673955e-05)
(-1.03399393522e-07 -8.35210927811e-07 -3.45417917119e-05)
(-1.64557290486e-07 -7.97994814455e-07 -3.39332886607e-05)
(-2.20409836159e-07 -7.54845101059e-07 -3.3099796811e-05)
(-2.70742396865e-07 -7.04544040758e-07 -3.20774496339e-05)
(-3.14882539807e-07 -6.45612498437e-07 -3.09077434869e-05)
(-3.51786591743e-07 -5.78782437601e-07 -2.96507897247e-05)
(-3.80138735405e-07 -5.05618362868e-07 -2.83834448516e-05)
(-3.98836721281e-07 -4.28491209024e-07 -2.71805550248e-05)
(-4.07689203803e-07 -3.49972898526e-07 -2.60971247799e-05)
(-4.07400072256e-07 -2.72750215194e-07 -2.51663455548e-05)
(-3.99447762748e-07 -1.99816110457e-07 -2.44094822395e-05)
(-3.88360464735e-07 -1.33878089079e-07 -2.38379871083e-05)
(-3.79157480445e-07 -7.60036758353e-08 -2.3455681014e-05)
(-3.75305360971e-07 -2.43858513115e-08 -2.3255021917e-05)
(-3.25183267228e-08 -7.26995780223e-07 -3.25685114782e-05)