/*--------------------------------*- C++ -*----------------------------------*\
| =========                 |                                                 |
| \\      /  F ield         | foam-extend: Open Source CFD                    |
|  \\    /   O peration     | Version:     4.1                                |
|   \\  /    A nd           | Web:         http://www.foam-extend.org         |
|    \\/     M anipulation  |                                                 |
\*---------------------------------------------------------------------------*/
FoamFile
{
    version     2.0;
    format      ascii;
    class       vectorField;
    location    "1";
    object      solidsCellD_iteration2;
}
// * * * * * * * * * * * * * * * * * * * * * * * * * * * * * * * * * * * * * //


1050
(
(3.53975252675e-09 -5.22576670928e-07 -1.48367743844e-05)
(1.03108811625e-08 -5.27222397767e-07 -1.47276834733e-05)
(1.52087006605e-08 -5.33249766554e-07 -1.4512113452e-05)
(1.51593974787e-08 -5.39230071101e-07 -1.42089381834e-05)
(9.97396918415e-09 -5.4057790961e-07 -1.38374636727e-05)
(-6.44960632216e-10 -5.34435052165e-07 -1.3419400085e-05)
(-1.68068046478e-08 -5.19261826121e-07 -1.29737586548e-05)
(-3.84304208268e-08 -4.93806036373e-07 -1.25188920184e-05)
(-6.47977008722e-08 -4.56900897795e-07 -1.20762707743e-05)
(-9.41152006605e-08 -4.08151583502e-07 -1.16694384836e-05)
(-1.23793653007e-07 -3.4840748651e-07 -1.13188064126e-05)
(-1.51061273433e-07 -2.7945089687e-07 -1.10374479013e-05)
(-1.73519209819e-07 -2.03418181027e-07 -1.08307436384e-05)
(-1.89306852726e-07 -1.22612019677e-07 -1.06988795469e-05)
(-1.96996118351e-07 -4.01376671089e-08 -1.0638834709e-05)
(6.24471436329e-09 -4.41892171014e-07 -1.46883884341e-05)
(1.67205563806e-08 -4.42843263929e-07 -1.45748457475e-05)
(2.53104183258e-08 -4.52564756219e-07 -1.43592990751e-05)
(2.91431793914e-08 -4.61754731605e-07 -1.40580608919e-05)
(2.7769130089e-08 -4.66286845455e-07 -1.36882082166e-05)
(2.09696222397e-08 -4.63037514118e-07 -1.32714651183e-05)
(8.96193273233e-09 -4.50833161e-07 -1.28265742509e-05)
(-7.96828527435e-09 -4.28597076904e-07 -1.23721833342e-05)
(-2.88911354408e-08 -3.95194088793e-07 -1.19305753447e-05)
(-5.184015413e-08 -3.50522950247e-07 -1.15259143393e-05)
(-7.42155063387e-08 -2.9603553764e-07 -1.11784186884e-05)
(-9.35472004043e-08 -2.34238144509e-07 -1.09002851334e-05)
(-1.08255203238e-07 -1.67904486276e-07 -1.06961105464e-05)
(-1.17903338131e-07 -9.96231303334e-08 -1.05662416918e-05)
(-1.22763367e-07 -3.1964122292e-08 -1.05096333513e-05)
(1.17443896032e-08 -3.10974955767e-07 -1.43644262631e-05)
(3.1389348398e-08 -3.20016718149e-07 -1.42434331701e-05)
(4.74891076172e-08 -3.31381769292e-07 -1.4036299049e-05)
(5.90290380271e-08 -3.43643998539e-07 -1.37402305585e-05)
(6.49694985195e-08 -3.52250599526e-07 -1.33771704698e-05)
(6.54349287625e-08 -3.53830442178e-07 -1.29650051177e-05)
(6.07383875105e-08 -3.47279927289e-07 -1.25245188524e-05)
(5.1295732313e-08 -3.31696583434e-07 -1.20756630593e-05)
(3.82149526749e-08 -3.06054165159e-07 -1.16409858022e-05)
(2.35837876128e-08 -2.70379043889e-07 -1.12437966365e-05)
(9.92040367767e-09 -2.26348554031e-07 -1.09030980631e-05)
(-6.98790540632e-10 -1.76732179436e-07 -1.06300625378e-05)
(-7.29837985245e-09 -1.24508977909e-07 -1.04290079816e-05)
(-9.79809141639e-09 -7.25013634262e-08 -1.03006877243e-05)
(-1.06528845998e-08 -2.24933099137e-08 -1.02427015379e-05)
(1.70408229402e-08 -1.55662058092e-07 -1.38081478444e-05)
(4.5875900946e-08 -1.60604824964e-07 -1.37058975713e-05)
(7.37006263081e-08 -1.74003594772e-07 -1.35008161833e-05)
(9.67501382925e-08 -1.89711652473e-07 -1.32166084747e-05)
(1.14063967038e-07 -2.03878146219e-07 -1.2862662263e-05)
(1.25469683006e-07 -2.12788238287e-07 -1.24577789843e-05)
(1.31248245594e-07 -2.15043735571e-07 -1.20250153847e-05)
(1.31913665039e-07 -2.09697765893e-07 -1.15859304977e-05)
(1.28706425109e-07 -1.95786766936e-07 -1.11627891252e-05)
(1.23755481123e-07 -1.7337236283e-07 -1.07772440689e-05)
(1.19416050489e-07 -1.44126776381e-07 -1.04465050044e-05)
(1.17250720024e-07 -1.1076299674e-07 -1.01805303219e-05)
(1.17315906135e-07 -7.60742690754e-08 -9.98357920334e-06)
(1.19285413336e-07 -4.28919405679e-08 -9.85727779406e-06)
(1.20960077895e-07 -1.23172523076e-08 -9.79738342692e-06)
(2.48948123147e-08 2.93155019083e-08 -1.30118904605e-05)
(6.85140210657e-08 1.87238895149e-08 -1.29033733676e-05)
(1.1128032783e-07 3.98471990999e-09 -1.27001647123e-05)
(1.47827279226e-07 -1.64783912224e-08 -1.24239739799e-05)
(1.77727073746e-07 -3.7577761601e-08 -1.20796105805e-05)
(2.00956317194e-07 -5.5689482872e-08 -1.16866108125e-05)
(2.17923537303e-07 -6.89920345477e-08 -1.12685619133e-05)
(2.29265044766e-07 -7.63367993502e-08 -1.08472675895e-05)
(2.36279824852e-07 -7.67608965594e-08 -1.04435068174e-05)
(2.41023691357e-07 -7.02329494209e-08 -1.00763387981e-05)
(2.45591629273e-07 -5.81548592531e-08 -9.76071707083e-06)
(2.51130888117e-07 -4.29005170137e-08 -9.5053809861e-06)
(2.57179448282e-07 -2.69341206886e-08 -9.31477210342e-06)
(2.62737643196e-07 -1.29668134476e-08 -9.19174247687e-06)
(2.6539431487e-07 -1.98421468844e-09 -9.13130160245e-06)
(3.36926577125e-08 2.26418695528e-07 -1.18529634811e-05)
(9.25979153105e-08 2.16373093184e-07 -1.17479306779e-05)
(1.51386154208e-07 1.98810044564e-07 -1.15547529232e-05)
(2.02405093516e-07 1.72173647787e-07 -1.12935402113e-05)
(2.46051302848e-07 1.42106099705e-07 -1.0968228807e-05)
(2.81983743477e-07 1.12557659817e-07 -1.05985231537e-05)
(3.10704777851e-07 8.57422778032e-08 -1.02068921642e-05)
(3.32919909169e-07 6.31959160578e-08 -9.81419065679e-06)
(3.49930415675e-07 4.60222610373e-08 -9.43920514057e-06)
(3.63708790668e-07 3.44855372955e-08 -9.09819128471e-06)
(3.76048052813e-07 2.76692096045e-08 -8.80390624811e-06)
(3.87598635694e-07 2.37904076121e-08 -8.56425679611e-06)
(3.97702465121e-07 2.0740213663e-08 -8.38428505711e-06)
(4.05390773674e-07 1.58347598167e-08 -8.26807550622e-06)
(4.07876713514e-07 7.9060497545e-09 -8.21033837142e-06)
(4.4176863235e-08 4.28759579387e-07 -1.02534019923e-05)
(1.19684234871e-07 4.21182632978e-07 -1.01664894456e-05)
(1.9493126273e-07 3.95601220165e-07 -9.99348069317e-06)
(2.61521234021e-07 3.61450750153e-07 -9.75600471434e-06)
(3.18363346794e-07 3.20694760689e-07 -9.46378299807e-06)
(3.65982527282e-07 2.78044483241e-07 -9.13276366489e-06)
(4.04860397207e-07 2.36261403782e-07 -8.78350079404e-06)
(4.35933320556e-07 1.97246513448e-07 -8.43449307562e-06)
(4.60551961402e-07 1.62358609936e-07 -8.10189774898e-06)
(4.8068354801e-07 1.32204987229e-07 -7.79887785431e-06)
(4.97993773134e-07 1.06449357084e-07 -7.53601148877e-06)
(5.12819064341e-07 8.39815162561e-08 -7.32078076411e-06)
(5.24431526959e-07 6.30428463682e-08 -7.15919336986e-06)
(5.32339478048e-07 4.08969577644e-08 -7.05618083339e-06)
(5.33825681637e-07 1.63460679901e-08 -7.00546699413e-06)
(5.51409463747e-08 6.03796322074e-07 -8.1366047158e-06)
(1.43477736572e-07 5.93669320628e-07 -8.04566551817e-06)
(2.3333617685e-07 5.64154179971e-07 -7.90565011204e-06)
(3.12418780089e-07 5.22301682355e-07 -7.708340371e-06)
(3.79953181267e-07 4.71881565229e-07 -7.47008070986e-06)
(4.36139285677e-07 4.1717620217e-07 -7.20164530075e-06)
(4.81638145115e-07 3.61655881298e-07 -6.91899654063e-06)
(5.17602021362e-07 3.07660051356e-07 -6.63688294198e-06)
(5.45547943533e-07 2.56928367582e-07 -6.36784462393e-06)
(5.67553901527e-07 2.10499614969e-07 -6.12175116935e-06)
(5.85472615226e-07 1.68569364099e-07 -5.90707613167e-06)
(5.9990587054e-07 1.3050529549e-07 -5.73084890729e-06)
(6.10571098831e-07 9.47811631387e-08 -5.59945702749e-06)
(6.17716321463e-07 5.88167753274e-08 -5.517257174e-06)
(6.18762201357e-07 2.20408762572e-08 -5.47594616285e-06)
(6.0084424774e-08 7.01638574287e-07 -5.33642833492e-06)
(1.55933161978e-07 6.78727685575e-07 -5.29827350266e-06)
(2.50206069558e-07 6.47655462876e-07 -5.19109216606e-06)
(3.31448662688e-07 6.01558750261e-07 -5.06178678384e-06)
(4.00787748155e-07 5.45884194354e-07 -4.90271658257e-06)
(4.56962444137e-07 4.84920850825e-07 -4.72369181219e-06)
(5.01615744494e-07 4.22055241004e-07 -4.53470303048e-06)
(5.35681123413e-07 3.59921714688e-07 -4.34566158474e-06)
(5.60782277717e-07 3.00540908542e-07 -4.1649543183e-06)
(5.79011954518e-07 2.45310270007e-07 -3.99901350624e-06)
(5.92458575348e-07 1.94800177505e-07 -3.85390728007e-06)
(6.02287314181e-07 1.486711646e-07 -3.73515254161e-06)
(6.0901663562e-07 1.05676660359e-07 -3.64771908972e-06)
(6.13572593729e-07 6.37146411749e-08 -3.5938588701e-06)
(6.12716967183e-07 2.3038137136e-08 -3.56370936977e-06)
(4.57931488191e-08 5.28707484452e-07 -1.88453693853e-06)
(1.10479763803e-07 5.14022345909e-07 -1.85804184976e-06)
(1.77323322149e-07 4.87250507479e-07 -1.82387478397e-06)
(2.35416021404e-07 4.50824489246e-07 -1.77791342861e-06)
(2.82807096705e-07 4.07388138944e-07 -1.72193961217e-06)
(3.20345849041e-07 3.59903343847e-07 -1.65838859687e-06)
(3.48203886659e-07 3.11099616812e-07 -1.5910886941e-06)
(3.67654630874e-07 2.63066929369e-07 -1.52361404698e-06)
(3.80124575502e-07 2.17435334407e-07 -1.45900061241e-06)
(3.87355292773e-07 1.752726661e-07 -1.39962577547e-06)
(3.91153925566e-07 1.37058598679e-07 -1.34798248431e-06)
(3.92881433122e-07 1.02677613227e-07 -1.30637383755e-06)
(3.93656168627e-07 7.13963543441e-08 -1.27675877521e-06)
(3.93618465324e-07 4.22391243405e-08 -1.2595979242e-06)
(3.93037571479e-07 1.51672413102e-08 -1.2481189759e-06)
(-4.02288073162e-09 -5.95399536844e-07 -1.48983071006e-05)
(-1.23900172727e-08 -6.00431061873e-07 -1.47887695989e-05)
(-2.22500868664e-08 -5.99992693836e-07 -1.45731186669e-05)
(-3.53915955009e-08 -5.98111635322e-07 -1.42688355454e-05)
(-5.23986087381e-08 -5.90241278623e-07 -1.38965224002e-05)
(-7.34953332654e-08 -5.74131198465e-07 -1.34772337566e-05)
(-9.84954815305e-08 -5.48975863564e-07 -1.30300433015e-05)
(-1.2695058578e-07 -5.14374718383e-07 -1.25728482777e-05)
(-1.57943657422e-07 -4.69993728637e-07 -1.2127379255e-05)
(-1.89870364626e-07 -4.15912724412e-07 -1.17178372404e-05)
(-2.20666178627e-07 -3.52916555638e-07 -1.13651348454e-05)
(-2.48121476765e-07 -2.82333955068e-07 -1.10824154546e-05)
(-2.70165489977e-07 -2.05722735196e-07 -1.08748765313e-05)
(-2.84670914746e-07 -1.24783542601e-07 -1.07428263438e-05)
(-2.88517337172e-07 -4.11495624499e-08 -1.06848840713e-05)
(-2.488757331e-09 -5.24405914457e-07 -1.47487189394e-05)
(-7.82318018998e-09 -5.20872215499e-07 -1.46412849099e-05)
(-1.35656150032e-08 -5.23068087402e-07 -1.44236132841e-05)
(-2.29846066254e-08 -5.23463921206e-07 -1.41229464357e-05)
(-3.61612960147e-08 -5.17991255833e-07 -1.37518474763e-05)
(-5.33019400624e-08 -5.04208365468e-07 -1.33333560637e-05)
(-7.39113221858e-08 -4.81585031004e-07 -1.28867763174e-05)
(-9.74027980047e-08 -4.49907256419e-07 -1.24305655893e-05)
(-1.22740279169e-07 -4.08901603411e-07 -1.19871163279e-05)
(-1.48243941516e-07 -3.58915998123e-07 -1.15808444593e-05)
(-1.71881286891e-07 -3.01247355731e-07 -1.12321932686e-05)
(-1.91702218461e-07 -2.37868831279e-07 -1.09533634206e-05)
(-2.06391032956e-07 -1.70936850354e-07 -1.07488867885e-05)
(-2.15190897245e-07 -1.02439562249e-07 -1.06193221519e-05)
(-2.1675739506e-07 -3.35455647323e-08 -1.05640043561e-05)
(2.48254676619e-09 -4.11971303336e-07 -1.4439853835e-05)
(5.55044983086e-09 -4.16371943258e-07 -1.4313956057e-05)
(5.39798218331e-09 -4.2070452206e-07 -1.41070988888e-05)
(1.83600811334e-09 -4.24122316951e-07 -1.38111537706e-05)
(-5.87212191716e-09 -4.22525162364e-07 -1.34464439267e-05)
(-1.74330156041e-08 -4.13062296884e-07 -1.30323308069e-05)
(-3.20693764131e-08 -3.9523671708e-07 -1.2590030799e-05)
(-4.90737630292e-08 -3.68975053308e-07 -1.21394006906e-05)
(-6.73643661907e-08 -3.34153124954e-07 -1.17029641367e-05)
(-8.53313299768e-08 -2.9132841854e-07 -1.13041796268e-05)
(-1.01145524375e-07 -2.42105039673e-07 -1.09623037678e-05)
(-1.13256896253e-07 -1.88809071706e-07 -1.06885555563e-05)
(-1.20937817361e-07 -1.33845225045e-07 -1.04872052471e-05)
(-1.23521478875e-07 -7.92023639352e-08 -1.0359351633e-05)
(-1.22245431839e-07 -2.56088510155e-08 -1.0301245387e-05)
(6.73843465735e-09 -2.83978120655e-07 -1.38788196912e-05)
(1.63456134046e-08 -2.84540947471e-07 -1.37740452376e-05)
(2.47898962102e-08 -2.91203058044e-07 -1.35720239237e-05)
(3.00518608001e-08 -2.97968828212e-07 -1.32880071931e-05)
(3.10546536762e-08 -3.01467914359e-07 -1.29335298045e-05)
(2.81537930851e-08 -2.98491856808e-07 -1.25275253135e-05)
(2.20659041589e-08 -2.88277815599e-07 -1.20934789189e-05)
(1.35253015817e-08 -2.70647157502e-07 -1.16529593737e-05)
(3.61545237171e-09 -2.45489646031e-07 -1.1228242929e-05)
(-6.11769316305e-09 -2.1339670944e-07 -1.08411625866e-05)
(-1.40199362787e-08 -1.76029506842e-07 -1.05092509628e-05)
(-1.89520635041e-08 -1.35783170474e-07 -1.0242491975e-05)
(-2.10848808199e-08 -9.49660108735e-08 -1.00449937541e-05)
(-2.0194823361e-08 -5.53547748628e-08 -9.91870199756e-06)
(-1.77685378638e-08 -1.75499027959e-08 -9.85695710284e-06)
(1.25181245964e-08 -1.31888472835e-07 -1.30838754924e-05)
(3.34558003743e-08 -1.37477677783e-07 -1.29767805764e-05)
(5.35336017857e-08 -1.45458923042e-07 -1.27751384271e-05)
(6.93326544565e-08 -1.56549328613e-07 -1.24981278672e-05)
(8.01721944006e-08 -1.66030121363e-07 -1.21527700375e-05)
(8.66800822726e-08 -1.70946570595e-07 -1.17581375728e-05)
(8.96180700738e-08 -1.70165251919e-07 -1.13382606777e-05)
(8.9729245517e-08 -1.6329841338e-07 -1.09150743019e-05)
(8.80602777135e-08 -1.50135725075e-07 -1.050944792e-05)
(8.60739060763e-08 -1.3110652092e-07 -1.01405925693e-05)
(8.52200058392e-08 -1.07649221952e-07 -9.82372507157e-06)
(8.63282269804e-08 -8.19607070913e-08 -9.56750339039e-06)
(8.88409197565e-08 -5.61161970333e-08 -9.37623453061e-06)
(9.2421711437e-08 -3.15830230983e-08 -9.25305390389e-06)
(9.49689436845e-08 -9.43213328935e-09 -9.19023739264e-06)
(1.8727968642e-08 2.86075243872e-08 -1.19284691108e-05)
(5.14883255863e-08 2.15044328259e-08 -1.18252112948e-05)
(8.40011167189e-08 1.25563640709e-08 -1.16295557814e-05)
(1.10533334278e-07 -3.18032221392e-09 -1.13670661017e-05)
(1.32061201785e-07 -1.9535128012e-08 -1.10402128793e-05)
(1.48648065018e-07 -3.35467489187e-08 -1.06687018162e-05)
(1.61091557861e-07 -4.37720167573e-08 -1.02752031791e-05)
(1.70041228021e-07 -4.94842468623e-08 -9.88070014002e-06)
(1.76450099854e-07 -5.02305920709e-08 -9.5040199851e-06)
(1.81726760086e-07 -4.61055889943e-08 -9.16141326794e-06)
(1.87121742647e-07 -3.81115406466e-08 -8.8658020079e-06)
(1.93015441634e-07 -2.80166835877e-08 -8.62503487134e-06)
(1.98647937875e-07 -1.76360582848e-08 -8.44432972298e-06)
(2.03800516301e-07 -8.26381916678e-09 -8.32822526453e-06)
(2.05345453586e-07 -1.51007318183e-09 -8.26911616755e-06)
(2.66339494231e-08 1.9217321507e-07 -1.03235257902e-05)
(7.22966794363e-08 1.86489529176e-07 -1.02379119792e-05)
(1.16285528677e-07 1.71228318382e-07 -1.00628907601e-05)
(1.54572381357e-07 1.5018795431e-07 -9.82579567626e-06)
(1.86233990548e-07 1.25833905682e-07 -9.53307067148e-06)
(2.12041966027e-07 1.01816542105e-07 -9.20119950888e-06)
(2.32690914295e-07 7.98606435821e-08 -8.85079077791e-06)
(2.48902609816e-07 6.09774727891e-08 -8.50047359737e-06)
(2.61573104823e-07 4.58856463066e-08 -8.16642873357e-06)
(2.72128854107e-07 3.4869450983e-08 -7.86174255962e-06)
(2.81793155354e-07 2.73968577597e-08 -7.5971961588e-06)
(2.90629073546e-07 2.21560541826e-08 -7.38040258599e-06)
(2.97619066519e-07 1.758159645e-08 -7.21797763485e-06)
(3.02993651305e-07 1.24945776814e-08 -7.11539651378e-06)
(3.03184406389e-07 5.33302195677e-09 -7.06436606717e-06)
(3.38515575356e-08 3.29288018213e-07 -8.20150597444e-06)
(8.82320728072e-08 3.26399075072e-07 -8.10620544875e-06)
(1.43585089638e-07 3.07242423112e-07 -7.96758016613e-06)
(1.91701780802e-07 2.81270971162e-07 -7.77023251327e-06)
(2.32005479029e-07 2.4998475681e-07 -7.53177569146e-06)
(2.6511544999e-07 2.16873363097e-07 -7.26273549641e-06)
(2.91472588041e-07 1.84253187225e-07 -6.97920532966e-06)
(3.11983688344e-07 1.53485346872e-07 -6.69598889949e-06)
(3.27635975227e-07 1.25650366428e-07 -6.4255821431e-06)
(3.39998916066e-07 1.01417761371e-07 -6.17778107795e-06)
(3.50510784239e-07 8.0631692638e-08 -5.96135283595e-06)
(3.59371994415e-07 6.22681288426e-08 -5.7835994269e-06)
(3.65686653852e-07 4.49861375997e-08 -5.65170415432e-06)
(3.70595557193e-07 2.80168312878e-08 -5.57010066694e-06)
(3.70965422487e-07 1.0252645496e-08 -5.52731876934e-06)
(3.78026090132e-08 4.14710925836e-07 -5.38205029333e-06)
(9.93240996056e-08 3.98898040016e-07 -5.34263019453e-06)
(1.57673956965e-07 3.79813271936e-07 -5.235548132e-06)
(2.07477935914e-07 3.50938838101e-07 -5.10542750929e-06)
(2.49655298724e-07 3.16159289927e-07 -4.9456838562e-06)
(2.83113169227e-07 2.78497878504e-07 -4.76577057346e-06)
(3.09395760198e-07 2.40165513444e-07 -4.57567098859e-06)
(3.29036992223e-07 2.02782080527e-07 -4.38528016753e-06)
(3.43060253946e-07 1.67661311644e-07 -4.20296823089e-06)
(3.53008404122e-07 1.35768777805e-07 -4.03518452341e-06)
(3.60442529728e-07 1.07240781337e-07 -3.88835087148e-06)
(3.65897278432e-07 8.13382570363e-08 -3.76823150568e-06)
(3.69073162017e-07 5.71861333948e-08 -3.6803851462e-06)
(3.72446807635e-07 3.44770062444e-08 -3.62633244764e-06)
(3.70529785371e-07 1.21673445112e-08 -3.59236165638e-06)
(2.65346864693e-08 3.03315720457e-07 -1.8898571068e-06)
(6.45406216285e-08 2.93230841492e-07 -1.86416277223e-06)
(1.03525811291e-07 2.77109186366e-07 -1.82900664395e-06)
(1.37089920817e-07 2.54867948074e-07 -1.78254258619e-06)
(1.63895233173e-07 2.2863748438e-07 -1.72592951675e-06)
(1.84719338783e-07 2.00301703055e-07 -1.66165900262e-06)
(1.99630811993e-07 1.71560355334e-07 -1.59345767461e-06)
(2.09475945913e-07 1.4363822797e-07 -1.52495258971e-06)
(2.15131430741e-07 1.17530151021e-07 -1.45917557886e-06)
(2.17811172122e-07 9.38962421188e-08 -1.39854877957e-06)
(2.18737876287e-07 7.28720562167e-08 -1.34578802907e-06)
(2.18569522713e-07 5.411755302e-08 -1.30323898747e-06)
(2.17921019348e-07 3.72123926915e-08 -1.27300814131e-06)
(2.16890295774e-07 2.22321954932e-08 -1.25484556003e-06)
(2.15676414495e-07 7.90142922373e-09 -1.24130252574e-06)
(-1.25298128988e-08 -6.95608299248e-07 -1.50171347777e-05)
(-3.93631321798e-08 -6.99573695809e-07 -1.49010927618e-05)
(-6.7529307593e-08 -6.92760886977e-07 -1.46854085045e-05)
(-9.66356659567e-08 -6.82491002051e-07 -1.43782144856e-05)
(-1.28258474664e-07 -6.65245900179e-07 -1.4002546742e-05)
(-1.62374623269e-07 -6.39305203341e-07 -1.35802370925e-05)
(-1.9831682111e-07 -6.04410728691e-07 -1.31310620112e-05)
(-2.35339338519e-07 -5.60704542811e-07 -1.26728547213e-05)
(-2.72565352289e-07 -5.08299944953e-07 -1.2227227053e-05)
(-3.08866828243e-07 -4.47380023158e-07 -1.18182616502e-05)
(-3.42852255896e-07 -3.78486126781e-07 -1.14667084505e-05)
(-3.72818480027e-07 -3.02549509047e-07 -1.11855220544e-05)
(-3.97029217861e-07 -2.20727642139e-07 -1.09795890989e-05)
(-4.13935022582e-07 -1.34506080013e-07 -1.08484946831e-05)
(-4.18721987955e-07 -4.45145866204e-08 -1.07893788874e-05)
(-1.19490414959e-08 -6.19830540572e-07 -1.48554474295e-05)
(-3.58486596636e-08 -6.15558187778e-07 -1.47537907294e-05)
(-5.8815160023e-08 -6.10298424081e-07 -1.4533916263e-05)
(-8.39308249473e-08 -6.02045881132e-07 -1.42307461553e-05)
(-1.1146117637e-07 -5.87077878409e-07 -1.38563978346e-05)
(-1.41235413242e-07 -5.63465487871e-07 -1.34348804223e-05)
(-1.72371492882e-07 -5.31136406014e-07 -1.29863223722e-05)
(-2.04001763931e-07 -4.90427229478e-07 -1.25291416061e-05)
(-2.35117792605e-07 -4.41582742059e-07 -1.20856153974e-05)
(-2.64500121067e-07 -3.85102831639e-07 -1.16799029273e-05)
(-2.90750886536e-07 -3.22050251663e-07 -1.13322925583e-05)
(-3.12352379614e-07 -2.54050463236e-07 -1.10549276491e-05)
(-3.28266149337e-07 -1.82929361404e-07 -1.08520728146e-05)
(-3.38736342938e-07 -1.10294848535e-07 -1.07233745967e-05)
(-3.41464412784e-07 -3.64258809466e-08 -1.06649601664e-05)
(-7.98664352796e-09 -5.21673626189e-07 -1.45581613822e-05)
(-2.39063355848e-08 -5.21538215734e-07 -1.44311065174e-05)
(-4.18280348039e-08 -5.1856381115e-07 -1.42208094654e-05)
(-6.2238792453e-08 -5.12987789964e-07 -1.39224002361e-05)
(-8.52867561227e-08 -5.01292785852e-07 -1.35538951411e-05)
(-1.10431770706e-07 -4.81221871364e-07 -1.31361527788e-05)
(-1.36455800691e-07 -4.52766465937e-07 -1.26911697594e-05)
(-1.62358844319e-07 -4.16443852839e-07 -1.22389000567e-05)
(-1.87101389395e-07 -3.72702624632e-07 -1.18017521658e-05)
(-2.09550751584e-07 -3.22316266987e-07 -1.14029146114e-05)
(-2.28496911203e-07 -2.66702009988e-07 -1.10615719013e-05)
(-2.42791334461e-07 -2.0788275721e-07 -1.07889204912e-05)
(-2.52003329174e-07 -1.47952214205e-07 -1.05887177636e-05)
(-2.56466475967e-07 -8.82775429717e-08 -1.04607063419e-05)
(-2.56361518792e-07 -2.89375003044e-08 -1.0399372332e-05)
(-4.34914009173e-09 -4.13476467914e-07 -1.39975133073e-05)
(-1.52302380564e-08 -4.10671720852e-07 -1.38893881836e-05)
(-2.70641091619e-08 -4.10450500277e-07 -1.36857170486e-05)
(-4.08060356389e-08 -4.07851565616e-07 -1.3399517378e-05)
(-5.71812702596e-08 -4.00424404358e-07 -1.3042135225e-05)
(-7.54657753285e-08 -3.85625334844e-07 -1.26333418814e-05)
(-9.44745453886e-08 -3.63269540976e-07 -1.21971521257e-05)
(-1.13222435111e-07 -3.33822961012e-07 -1.17551578063e-05)
(-1.30751146406e-07 -2.97801773609e-07 -1.13294938392e-05)
(-1.46060520437e-07 -2.56091563895e-07 -1.09417997867e-05)
(-1.58133085777e-07 -2.10258404471e-07 -1.06097275518e-05)
(-1.66191600461e-07 -1.62452128029e-07 -1.03433196728e-05)
(-1.70736767745e-07 -1.14615352598e-07 -1.01460912072e-05)
(-1.72494978368e-07 -6.76942294755e-08 -1.00184561817e-05)
(-1.71498377501e-07 -2.19690807592e-08 -9.95414244622e-06)
(-9.98940482913e-12 -2.92183373649e-07 -1.31998212816e-05)
(-2.59590815015e-09 -2.93099893502e-07 -1.30910534031e-05)
(-5.94356827215e-09 -2.94311183313e-07 -1.28902569646e-05)
(-1.16009356399e-08 -2.95161732179e-07 -1.26121494312e-05)
(-2.03891042389e-08 -2.92370114807e-07 -1.22651759944e-05)
(-3.12193578052e-08 -2.83658408713e-07 -1.18686802745e-05)
(-4.29338198185e-08 -2.68616268034e-07 -1.14470559233e-05)
(-5.46305340352e-08 -2.47578307274e-07 -1.10222600961e-05)
(-6.54766256021e-08 -2.20979063947e-07 -1.06151026307e-05)
(-7.4580601051e-08 -1.89580325895e-07 -1.02447656261e-05)
(-8.10859912751e-08 -1.54824887971e-07 -9.92682568733e-06)
(-8.44137683213e-08 -1.18765113847e-07 -9.67008436487e-06)
(-8.53902107492e-08 -8.30736382439e-08 -9.47824488728e-06)
(-8.51963882385e-08 -4.82557852492e-08 -9.35297508251e-06)
(-8.38412001771e-08 -1.53099395312e-08 -9.2891841614e-06)
(4.11221567331e-09 -1.66510451524e-07 -1.20450696681e-05)
(1.00597071252e-08 -1.69854845306e-07 -1.19416402127e-05)
(1.60872835693e-08 -1.70420079749e-07 -1.17464508838e-05)
(1.8370527393e-08 -1.74264510616e-07 -1.14831135602e-05)
(1.78734643522e-08 -1.76118160574e-07 -1.11552417314e-05)
(1.51439054121e-08 -1.73951155605e-07 -1.0782484764e-05)
(1.12508245542e-08 -1.67160649626e-07 -1.03876474806e-05)
(6.85457662395e-09 -1.55845934315e-07 -9.99167762911e-06)
(2.5911660467e-09 -1.40190028738e-07 -9.61331315857e-06)
(-6.96690970424e-10 -1.20614950809e-07 -9.26884406059e-06)
(-2.26708160968e-09 -9.82259431473e-08 -8.97172886611e-06)
(-1.88484990968e-09 -7.47842728824e-08 -8.7300357777e-06)
(-5.32059503878e-10 -5.17029682235e-08 -8.54846230201e-06)
(9.05106648891e-10 -2.91935979035e-08 -8.43008037929e-06)
(2.12452193749e-09 -8.83728114059e-09 -8.37139653274e-06)
(9.86755047733e-09 -3.64622449115e-08 -1.04348028941e-05)
(2.58809731555e-08 -4.04633111725e-08 -1.03508607285e-05)
(3.99088447398e-08 -4.50052841014e-08 -1.01746727386e-05)
(5.09688242068e-08 -5.23725550138e-08 -9.93795694103e-06)
(5.85151003852e-08 -5.97596295452e-08 -9.64509918799e-06)
(6.34366259075e-08 -6.47508934125e-08 -9.31288654653e-06)
(6.66512046828e-08 -6.66762914697e-08 -8.96183774719e-06)
(6.86978980471e-08 -6.54501181091e-08 -8.61055707052e-06)
(7.00342666642e-08 -6.10217069659e-08 -8.27511284809e-06)
(7.15223164505e-08 -5.34628025109e-08 -7.96870834082e-06)
(7.39266479678e-08 -4.35501678927e-08 -7.70280503822e-06)
(7.71403298227e-08 -3.27488602948e-08 -7.48524783052e-06)
(7.97325876301e-08 -2.22104818061e-08 -7.32218920998e-06)
(8.13839759959e-08 -1.18517099155e-08 -7.21739606376e-06)
(8.20107851415e-08 -3.16108143976e-09 -7.16702258727e-06)
(1.43891622669e-08 7.35071653e-08 -8.30638637245e-06)
(3.65637766835e-08 7.5997842529e-08 -8.21054189049e-06)
(5.98046642895e-08 6.76868293029e-08 -8.07124573882e-06)
(7.92600204498e-08 5.72897502559e-08 -7.87421092914e-06)
(9.45864636955e-08 4.4932576172e-08 -7.63552035985e-06)
(1.06702857912e-07 3.30553308729e-08 -7.36588885868e-06)
(1.15926098714e-07 2.27828058201e-08 -7.08142595571e-06)
(1.22859442967e-07 1.44742989456e-08 -6.79694494577e-06)
(1.27942897287e-07 8.50644943225e-09 -6.52486058433e-06)
(1.32186731322e-07 5.1200219141e-09 -6.27518300212e-06)
(1.36550536217e-07 3.75529592629e-09 -6.05739381102e-06)
(1.40910373487e-07 3.13129383024e-09 -5.87889045936e-06)
(1.43520008365e-07 2.42289199317e-09 -5.74633137538e-06)
(1.45221767211e-07 2.37378838612e-09 -5.66204409546e-06)
(1.47071847101e-07 1.47573354262e-09 -5.61928189992e-06)
(1.84597265775e-08 1.62284332088e-07 -5.47460909395e-06)
(4.90794800977e-08 1.53928300977e-07 -5.43236226162e-06)
(7.64677584196e-08 1.45967912806e-07 -5.32591984155e-06)
(9.93532196619e-08 1.33210777352e-07 -5.19473472463e-06)
(1.18661682482e-07 1.17847660639e-07 -5.03413276879e-06)
(1.33532565889e-07 1.01684359184e-07 -4.85304414037e-06)
(1.45270324341e-07 8.57859388068e-08 -4.66148649156e-06)
(1.54022578227e-07 7.07850304696e-08 -4.46929236724e-06)
(1.60183535239e-07 5.72982587566e-08 -4.28479510722e-06)
(1.64713714688e-07 4.58269748028e-08 -4.11470778616e-06)
(1.68586877341e-07 3.60661089418e-08 -3.96602022042e-06)
(1.71786687457e-07 2.70748357487e-08 -3.84440096748e-06)
(1.72711321646e-07 1.87016094184e-08 -3.75488206974e-06)
(1.75153933997e-07 1.19999185607e-08 -3.69692947912e-06)
(1.75612160473e-07 4.75420947147e-09 -3.66486507072e-06)
(1.32561024626e-08 1.42247018558e-07 -1.9380550956e-06)
(3.22272258568e-08 1.36327673694e-07 -1.91363733628e-06)
(5.18090791887e-08 1.2874185444e-07 -1.87743211554e-06)
(6.8736134448e-08 1.1771551254e-07 -1.83025076095e-06)
(8.20425595714e-08 1.04830099708e-07 -1.77270340684e-06)
(9.24345228183e-08 9.11254692327e-08 -1.70734086164e-06)
(9.98864044766e-08 7.74468972256e-08 -1.63782358064e-06)
(1.04832345398e-07 6.43248474139e-08 -1.56780979749e-06)
(1.07646998135e-07 5.2255863248e-08 -1.50035436678e-06)
(1.09061834681e-07 4.15775101485e-08 -1.43803586171e-06)
(1.09765384887e-07 3.21751141733e-08 -1.38382945455e-06)
(1.09856371597e-07 2.36721800142e-08 -1.339939911e-06)
(1.09329167595e-07 1.61786925538e-08 -1.30819795496e-06)
(1.09313217257e-07 1.0177755642e-08 -1.28736435682e-06)
(1.08812425376e-07 3.93253400859e-09 -1.27673524304e-06)
(-2.17332428604e-08 -8.1916611049e-07 -1.51821642298e-05)
(-6.77502873848e-08 -8.17097264231e-07 -1.5059267089e-05)
(-1.14880919009e-07 -8.03586516274e-07 -1.48428863445e-05)
(-1.60732395584e-07 -7.84071163724e-07 -1.45327362916e-05)
(-2.07414993859e-07 -7.56762697847e-07 -1.41529002071e-05)
(-2.54785328777e-07 -7.20339697292e-07 -1.37270757004e-05)
(-3.0194479219e-07 -6.74952684605e-07 -1.32756825416e-05)
(-3.48101171484e-07 -6.21226588605e-07 -1.28163800272e-05)
(-3.92509110576e-07 -5.59653768703e-07 -1.2370569274e-05)
(-4.34435941074e-07 -4.9044668983e-07 -1.19620111081e-05)
(-4.72959596833e-07 -4.13853781955e-07 -1.16113190506e-05)
(-5.06611785525e-07 -3.30417766381e-07 -1.13315447981e-05)
(-5.33514582675e-07 -2.40902260798e-07 -1.11275237998e-05)
(-5.52489314689e-07 -1.46570958628e-07 -1.09979769576e-05)
(-5.59544749168e-07 -4.82850517709e-08 -1.0937111064e-05)
(-2.14431317757e-08 -7.30367986815e-07 -1.50065327171e-05)
(-6.48985885548e-08 -7.23907008583e-07 -1.49106057064e-05)
(-1.06449259567e-07 -7.11249265176e-07 -1.4689609578e-05)
(-1.47955748148e-07 -6.93872395304e-07 -1.43833138905e-05)
(-1.90210563803e-07 -6.69141917732e-07 -1.40050371543e-05)
(-2.32746212558e-07 -6.35495512534e-07 -1.35801346744e-05)
(-2.74528582534e-07 -5.93199795603e-07 -1.31293485708e-05)
(-3.14652339961e-07 -5.43033353883e-07 -1.26710256021e-05)
(-3.52268443885e-07 -4.85640264272e-07 -1.22273292957e-05)
(-3.86607131716e-07 -4.21572910436e-07 -1.18221056343e-05)
(-4.16749148668e-07 -3.5160990868e-07 -1.14755881094e-05)
(-4.41413996346e-07 -2.77032782878e-07 -1.12000055513e-05)
(-4.59429062819e-07 -1.9935686361e-07 -1.09991838083e-05)
(-4.7154889042e-07 -1.19975452759e-07 -1.08713845337e-05)
(-4.76476979475e-07 -3.94481189403e-08 -1.0811068153e-05)
(-1.88651946444e-08 -6.4330347659e-07 -1.47160275284e-05)
(-5.49930186721e-08 -6.38659037952e-07 -1.45920222131e-05)
(-9.15711772754e-08 -6.27876984504e-07 -1.43784586154e-05)
(-1.29318199243e-07 -6.12560413887e-07 -1.40777581466e-05)
(-1.6796022406e-07 -5.9025583064e-07 -1.37053548581e-05)
(-2.06716882239e-07 -5.59246915741e-07 -1.32841153318e-05)
(-2.44142450857e-07 -5.19915126665e-07 -1.28366310328e-05)
(-2.79132396012e-07 -4.73236845004e-07 -1.23829690465e-05)
(-3.10802568324e-07 -4.2009588863e-07 -1.19454142537e-05)
(-3.3850362896e-07 -3.61362906709e-07 -1.15467892174e-05)
(-3.6151893913e-07 -2.98198695183e-07 -1.12062456523e-05)
(-3.7894839114e-07 -2.3226789894e-07 -1.09350065233e-05)
(-3.90227127052e-07 -1.65323432682e-07 -1.07360883516e-05)
(-3.96230992914e-07 -9.86416219478e-08 -1.0607625293e-05)
(-3.97934419828e-07 -3.23068680466e-08 -1.05459082276e-05)
(-1.59001437512e-08 -5.54389081688e-07 -1.41598253747e-05)
(-4.80921816768e-08 -5.47196688893e-07 -1.40503884062e-05)
(-8.07339918096e-08 -5.39088387288e-07 -1.38457787815e-05)
(-1.13838398495e-07 -5.26079563121e-07 -1.35574593885e-05)
(-1.47716752783e-07 -5.06842370653e-07 -1.31970291954e-05)
(-1.81329609657e-07 -4.79587297725e-07 -1.27855609917e-05)
(-2.13191513019e-07 -4.44659412254e-07 -1.23474027788e-05)
(-2.422142637e-07 -4.0306961382e-07 -1.1904167579e-05)
(-2.67657052203e-07 -3.55827144043e-07 -1.1477783843e-05)
(-2.89070733133e-07 -3.03978660853e-07 -1.10895832774e-05)
(-3.05963325966e-07 -2.48901107718e-07 -1.07573892018e-05)