/*--------------------------------*- C++ -*----------------------------------*\
| =========                 |                                                 |
| \\      /  F ield         | foam-extend: Open Source CFD                    |
|  \\    /   O peration     | Version:     4.1                                |
|   \\  /    A nd           | Web:         http://www.foam-extend.org         |
|    \\/     M anipulation  |                                                 |
\*---------------------------------------------------------------------------*/
FoamFile
{
    version     2.0;
    format      ascii;
    class       vectorField;
    location    "1";
    object      solidsCellD_iteration15;
}
// * * * * * * * * * * * * * * * * * * * * * * * * * * * * * * * * * * * * * //


1050
(
(2.63641633347e-07 2.03790296533e-06 -4.92588915979e-05)
(7.24398354457e-07 1.98041783204e-06 -4.88397036633e-05)
(1.18187056629e-06 1.88700463873e-06 -4.80221666017e-05)
(1.60528613767e-06 1.75678383122e-06 -4.68739241003e-05)
(1.99709444908e-06 1.59644690808e-06 -4.54600643422e-05)
(2.34911936525e-06 1.41373190978e-06 -4.38462232582e-05)
(2.65067838157e-06 1.21905840094e-06 -4.21059374198e-05)
(2.8940285165e-06 1.0257945437e-06 -4.03288998678e-05)
(3.08108662408e-06 8.45630511636e-07 -3.86121384876e-05)
(3.22170650775e-06 6.84390666345e-07 -3.70412423533e-05)
(3.32789982627e-06 5.42487559407e-07 -3.56796592417e-05)
(3.40947190991e-06 4.15822382771e-07 -3.45701625738e-05)
(3.47176302306e-06 2.97899264663e-07 -3.37374973767e-05)
(3.51675446888e-06 1.80624086888e-07 -3.31908717738e-05)
(3.53804659607e-06 6.04527301012e-08 -3.29207975679e-05)
(2.77136118367e-07 2.27572937449e-06 -4.80206935007e-05)
(7.6022142799e-07 2.20927086505e-06 -4.760818779e-05)
(1.24162329736e-06 2.10071287634e-06 -4.67744554215e-05)
(1.68230424222e-06 1.94983142181e-06 -4.56183511016e-05)
(2.08684895177e-06 1.7665158564e-06 -4.42016737277e-05)
(2.44633554884e-06 1.56201775626e-06 -4.25903203211e-05)
(2.75082129696e-06 1.34931615992e-06 -4.08591376447e-05)
(2.99487552668e-06 1.1430332975e-06 -3.91012786823e-05)
(3.18349265019e-06 9.53833139905e-07 -3.74142171668e-05)
(3.32878649448e-06 7.85165667895e-07 -3.58792915327e-05)
(3.44357413632e-06 6.34719967871e-07 -3.45536481145e-05)
(3.53698070566e-06 4.95899620788e-07 -3.3474802965e-05)
(3.61206360924e-06 3.60659773682e-07 -3.26638565802e-05)
(3.66843574243e-06 2.20873605112e-07 -3.21284494955e-05)
(3.69652894284e-06 7.59066951855e-08 -3.18602152882e-05)
(3.05395221364e-07 2.68526067312e-06 -4.62885892548e-05)
(8.24748082319e-07 2.6205823159e-06 -4.58416354427e-05)
(1.3410612322e-06 2.49318525978e-06 -4.49978553472e-05)
(1.81191143236e-06 2.31543940955e-06 -4.3837970791e-05)
(2.23996471585e-06 2.10069295232e-06 -4.24246189554e-05)
(2.61575892395e-06 1.86362311814e-06 -4.0823135514e-05)
(2.93028087767e-06 1.61993223924e-06 -3.91122591993e-05)
(3.1812524735e-06 1.38539877403e-06 -3.7387396654e-05)
(3.3769512494e-06 1.16968641556e-06 -3.57431390262e-05)
(3.53115095445e-06 9.74152161366e-07 -3.42542047603e-05)
(3.65642287925e-06 7.94568389464e-07 -3.29707881259e-05)
(3.76061866549e-06 6.23360710959e-07 -3.19253931343e-05)
(3.84493590629e-06 4.52896581199e-07 -3.11360640352e-05)
(3.90896458813e-06 2.75959630804e-07 -3.06105471761e-05)
(3.94030599626e-06 9.53400963847e-08 -3.034014077e-05)
(3.36893241817e-07 3.30755207545e-06 -4.38427802928e-05)
(9.01057276711e-07 3.2291167438e-06 -4.34016486013e-05)
(1.46821488488e-06 3.07466701787e-06 -4.25625704346e-05)
(1.97952244998e-06 2.85829612441e-06 -4.14231293863e-05)
(2.44038832916e-06 2.59718908471e-06 -4.00392094863e-05)
(2.84001243642e-06 2.3103785771e-06 -3.84752866738e-05)
(3.17122141001e-06 2.01713530471e-06 -3.68122014973e-05)
(3.43513349716e-06 1.73478453089e-06 -3.51449701507e-05)
(3.64284385516e-06 1.47246080259e-06 -3.35632363175e-05)
(3.80906607708e-06 1.23027626817e-06 -3.21344658114e-05)
(3.94573876178e-06 1.00322346556e-06 -3.0902381529e-05)
(4.05969751305e-06 7.83962708311e-07 -2.9895351126e-05)
(4.15086846165e-06 5.65878592461e-07 -2.91291993732e-05)
(4.21938091636e-06 3.42176271012e-07 -2.8611466254e-05)
(4.25374083716e-06 1.18156917647e-07 -2.83348986032e-05)
(3.80913034827e-07 4.05564105085e-06 -4.05527209256e-05)
(1.00278289654e-06 3.96492552114e-06 -4.01058944853e-05)
(1.63074546795e-06 3.77977495987e-06 -3.9284794504e-05)
(2.19170778241e-06 3.51806490209e-06 -3.81867685421e-05)
(2.69192730263e-06 3.20149135821e-06 -3.68604461531e-05)
(3.11973418975e-06 2.85352578168e-06 -3.53673991272e-05)
(3.47027502414e-06 2.49725441281e-06 -3.37877679694e-05)
(3.74807822138e-06 2.151776398e-06 -3.22126925442e-05)
(3.96655867257e-06 1.82659641462e-06 -3.07240414396e-05)
(4.14090247556e-06 1.52204650057e-06 -2.93808258501e-05)
(4.28251284481e-06 1.2338066982e-06 -2.82204981195e-05)
(4.39809638862e-06 9.5597456462e-07 -2.72681042106e-05)
(4.48797404504e-06 6.83477034343e-07 -2.65390321167e-05)
(4.55387844739e-06 4.09841563535e-07 -2.60405392971e-05)
(4.58638961682e-06 1.41350461352e-07 -2.57651663796e-05)
(4.29970078798e-07 4.86501017623e-06 -3.61338851217e-05)
(1.1147121528e-06 4.75905331572e-06 -3.57076472779e-05)
(1.80895587632e-06 4.53264313643e-06 -3.49304012166e-05)
(2.42137108417e-06 4.21832072061e-06 -3.391235224e-05)
(2.96059047269e-06 3.837952417e-06 -3.26903977409e-05)
(3.41431005393e-06 3.42051922214e-06 -3.13211570209e-05)
(3.78065793005e-06 2.99232062932e-06 -2.98796525957e-05)
(4.06737429083e-06 2.57444550537e-06 -2.8448523899e-05)
(4.28975026013e-06 2.17760777582e-06 -2.70987240357e-05)
(4.46332319161e-06 1.80370643992e-06 -2.58799415705e-05)
(4.59954725808e-06 1.45012615878e-06 -2.48239711863e-05)
(4.70605971018e-06 1.11259938667e-06 -2.39526453405e-05)
(4.78501580022e-06 7.8749993976e-07 -2.32807902432e-05)
(4.84061223287e-06 4.6814760301e-07 -2.28159920555e-05)
(4.86674468638e-06 1.6118582146e-07 -2.25497008028e-05)
(4.79359692354e-07 5.56471927116e-06 -3.03872958955e-05)
(1.21384968849e-06 5.43785803313e-06 -2.99802184972e-05)
(1.96006414549e-06 5.17470549235e-06 -2.92969343443e-05)
(2.61303272068e-06 4.80896953868e-06 -2.84095175657e-05)
(3.17815415263e-06 4.36931199895e-06 -2.73534698668e-05)
(3.64495021313e-06 3.88719572986e-06 -2.61742274481e-05)
(4.01432565759e-06 3.3923050405e-06 -2.49377444067e-05)
(4.2970322235e-06 2.9075012394e-06 -2.3713774024e-05)
(4.50980464753e-06 2.44529085834e-06 -2.25597064366e-05)
(4.66864590148e-06 2.01009904655e-06 -2.15154041563e-05)
(4.78592096356e-06 1.60168207212e-06 -2.06079912502e-05)
(4.871257542e-06 1.21701711134e-06 -1.98563262207e-05)
(4.92941073698e-06 8.53234353112e-07 -1.92728678411e-05)
(4.96731128659e-06 5.02956480044e-07 -1.88642692749e-05)
(4.98267251834e-06 1.7294528825e-07 -1.86206769592e-05)
(5.03321652846e-07 5.90526995953e-06 -2.31339065883e-05)
(1.25003799882e-06 5.75624116164e-06 -2.2809005394e-05)
(2.0109078486e-06 5.46281279598e-06 -2.22466311407e-05)
(2.66499288527e-06 5.06393459136e-06 -2.15498998762e-05)
(3.22159364275e-06 4.58705822198e-06 -2.072446721e-05)
(3.67057158566e-06 4.067069742e-06 -1.98090985172e-05)
(4.01643875015e-06 3.53434566696e-06 -1.88540504135e-05)
(4.2721039478e-06 3.01262180593e-06 -1.79116485119e-05)
(4.45504248227e-06 2.51573167831e-06 -1.70228056417e-05)
(4.58159585709e-06 2.0504738113e-06 -1.62162947391e-05)
(4.66561033627e-06 1.61883291148e-06 -1.55141719163e-05)
(4.71912646189e-06 1.21841142807e-06 -1.49318157382e-05)
(4.74924172432e-06 8.46332783367e-07 -1.44776444251e-05)
(4.76426006805e-06 4.94517309027e-07 -1.41557378088e-05)
(4.76587268653e-06 1.6991248852e-07 -1.39550268054e-05)
(4.61866987402e-07 5.30557370538e-06 -1.44825259853e-05)
(1.11202074275e-06 5.15961576927e-06 -1.42427196826e-05)
(1.77538273072e-06 4.87719343499e-06 -1.38862233426e-05)
(2.34144790308e-06 4.50309970752e-06 -1.34394369494e-05)
(2.81095334091e-06 4.06106610683e-06 -1.29180654695e-05)
(3.17964563684e-06 3.58257936417e-06 -1.23408722945e-05)
(3.45346517888e-06 3.09527136415e-06 -1.17411231754e-05)
(3.64570296404e-06 2.62034774556e-06 -1.1151032492e-05)
(3.77255772218e-06 2.1706371912e-06 -1.05944656206e-05)
(3.84915951691e-06 1.7532866048e-06 -1.00884071625e-05)
(3.8893589633e-06 1.37109353116e-06 -9.64761870401e-06)
(3.90575390107e-06 1.02184822135e-06 -9.28197239083e-06)
(3.90585928809e-06 7.03220645407e-07 -8.99508400127e-06)
(3.89772646112e-06 4.07410438575e-07 -8.78995912773e-06)
(3.88597518064e-06 1.40328816895e-07 -8.65581980995e-06)
(2.7567781602e-07 3.14298876728e-06 -5.18975360228e-06)
(6.54491109915e-07 3.03268153962e-06 -5.09773259697e-06)
(1.03594754506e-06 2.84893822443e-06 -4.96393948584e-06)
(1.35467504418e-06 2.61007524009e-06 -4.80465752766e-06)
(1.60981432802e-06 2.33317014764e-06 -4.61832744952e-06)
(1.79982578501e-06 2.03744129402e-06 -4.41360144798e-06)
(1.93056973094e-06 1.74028119043e-06 -4.20240687064e-06)
(2.01185654078e-06 1.45489284943e-06 -3.99610001239e-06)
(2.05459579067e-06 1.18914600654e-06 -3.80229804046e-06)
(2.06894918353e-06 9.47253105741e-07 -3.62645719879e-06)
(2.06455169375e-06 7.30647871343e-07 -3.4740755808e-06)
(2.05003660088e-06 5.37456858953e-07 -3.34839635153e-06)
(2.03058629033e-06 3.6575456457e-07 -3.24961300619e-06)
(2.01032815638e-06 2.10570428203e-07 -3.18019056823e-06)
(1.99677984576e-06 7.32903255427e-08 -3.13200497897e-06)
(1.64006090564e-07 1.08317510866e-06 -4.94592883964e-05)
(4.60700717661e-07 1.0585069239e-06 -4.90423543636e-05)
(7.52352285099e-07 1.01045175886e-06 -4.82259247369e-05)
(1.02343023322e-06 9.42606110522e-07 -4.70803579568e-05)
(1.2751298591e-06 8.57815250039e-07 -4.56701539665e-05)
(1.50177295598e-06 7.61268864675e-07 -4.4059332458e-05)
(1.69676202613e-06 6.58840798292e-07 -4.23202923639e-05)
(1.85611955524e-06 5.57899818972e-07 -4.05430948242e-05)
(1.98197657752e-06 4.64576910458e-07 -3.88258194898e-05)
(2.08093972911e-06 3.81436633667e-07 -3.72544389705e-05)
(2.16046458588e-06 3.07993295285e-07 -3.58921890322e-05)
(2.22613904297e-06 2.4094714781e-07 -3.47818957041e-05)
(2.27966333246e-06 1.75845011336e-07 -3.39486562651e-05)
(2.32153767882e-06 1.07402476933e-07 -3.34032369538e-05)
(2.34906746405e-06 3.65055433924e-08 -3.31333054678e-05)
(1.72466304299e-07 1.22730636681e-06 -4.82079044385e-05)
(4.82565984211e-07 1.19476722257e-06 -4.77943977535e-05)
(7.88533026079e-07 1.13979411375e-06 -4.69611166181e-05)
(1.07027470174e-06 1.06020478955e-06 -4.58050033344e-05)
(1.32975617619e-06 9.62673509476e-07 -4.4387769205e-05)
(1.56085358093e-06 8.54306611247e-07 -4.27740733756e-05)
(1.75760762927e-06 7.42350255168e-07 -4.10385716895e-05)
(1.91756057555e-06 6.34692366937e-07 -3.92754444113e-05)
(2.04453154249e-06 5.36658415812e-07 -3.75834109017e-05)
(2.14621217917e-06 4.49301295704e-07 -3.60442883482e-05)
(2.23030858247e-06 3.70398417752e-07 -3.47152131685e-05)
(2.3018958022e-06 2.95139107869e-07 -3.3633877364e-05)
(2.36109396338e-06 2.18127191965e-07 -3.28212370086e-05)
(2.40767343279e-06 1.34944150098e-07 -3.22860320608e-05)
(2.43656578388e-06 4.66733655488e-08 -3.2017234796e-05)
(1.87978792482e-07 1.48936175311e-06 -4.65055318893e-05)
(5.20183527043e-07 1.45976596605e-06 -4.60577584835e-05)
(8.47477101997e-07 1.39195762831e-06 -4.52140686064e-05)
(1.14638283746e-06 1.29395281561e-06 -4.40528898088e-05)
(1.41875143028e-06 1.17471599625e-06 -4.2636775757e-05)
(1.65813097559e-06 1.0439656318e-06 -4.10299768613e-05)
(1.85956580351e-06 9.10987072053e-07 -3.93114884591e-05)
(2.02259249097e-06 7.84448661786e-07 -3.75781892993e-05)
(2.15283898593e-06 6.68992618125e-07 -3.59261716126e-05)
(2.25875139113e-06 5.64319544054e-07 -3.44307464909e-05)
(2.34770458132e-06 4.66953238169e-07 -3.31422200853e-05)
(2.42399033753e-06 3.71522617477e-07 -3.20932542621e-05)
(2.48645071926e-06 2.72878495842e-07 -3.1301423903e-05)
(2.53557706925e-06 1.67558085055e-07 -3.07746630416e-05)
(2.56359338568e-06 5.73030875613e-08 -3.05024985535e-05)
(2.08125404715e-07 1.90477244028e-06 -4.40853643342e-05)
(5.68515890383e-07 1.86756237617e-06 -4.364145935e-05)
(9.26457423214e-07 1.77997626127e-06 -4.28024559531e-05)
(1.25008820942e-06 1.65463461176e-06 -4.16606575776e-05)
(1.54202357931e-06 1.50281335804e-06 -4.02727688258e-05)
(1.79524561707e-06 1.33734021634e-06 -3.87020177292e-05)
(2.00604621394e-06 1.16995005352e-06 -3.70297954819e-05)
(2.17601153085e-06 1.01038623594e-06 -3.53526781505e-05)
(2.31236188511e-06 8.63026865014e-07 -3.37617464038e-05)
(2.42399394186e-06 7.2686986335e-07 -3.23249761011e-05)
(2.51787415772e-06 5.98016677032e-07 -3.10862347282e-05)
(2.59781351028e-06 4.71321966403e-07 -3.00742374455e-05)
(2.6619308274e-06 3.42348732206e-07 -2.93048539569e-05)
(2.71177108192e-06 2.07979896937e-07 -2.8785496941e-05)
(2.73863791875e-06 7.03578238739e-08 -2.85071987304e-05)
(2.35069028344e-07 2.41172217661e-06 -4.08015189356e-05)
(6.32509016067e-07 2.36285737909e-06 -4.03534148962e-05)
(1.02870902091e-06 2.25312784589e-06 -3.95327551392e-05)
(1.38317150668e-06 2.09563817704e-06 -3.84324397304e-05)
(1.69912798816e-06 1.9050818506e-06 -3.71021995391e-05)
(1.9691771037e-06 1.69709880387e-06 -3.56021820979e-05)
(2.19111792786e-06 1.48602814783e-06 -3.40131265399e-05)
(2.36853702849e-06 1.28289129751e-06 -3.24275703171e-05)
(2.50994620954e-06 1.0924629493e-06 -3.09286259876e-05)
(2.62446221055e-06 9.14059452994e-07 -2.95757852101e-05)
(2.71881257464e-06 7.44382032999e-07 -2.84067348861e-05)
(2.79696647119e-06 5.79250151343e-07 -2.74470079166e-05)
(2.85743459427e-06 4.15213558944e-07 -2.67125702052e-05)
(2.90354994074e-06 2.49531005492e-07 -2.62107306851e-05)
(2.92621891608e-06 8.3771967049e-08 -2.59326278885e-05)
(2.6489101377e-07 2.95540626608e-06 -3.63673407624e-05)
(7.02352876041e-07 2.89546841416e-06 -3.59402300608e-05)
(1.13984183021e-06 2.75748465257e-06 -3.51635246038e-05)
(1.52589979457e-06 2.56369764812e-06 -3.41430424895e-05)
(1.86545288052e-06 2.32937096568e-06 -3.29167835761e-05)
(2.15063097927e-06 2.07368141302e-06 -3.15400252342e-05)
(2.3811119325e-06 1.81315567594e-06 -3.00884884903e-05)
(2.56231171112e-06 1.56030792706e-06 -2.86459985819e-05)
(2.70381798281e-06 1.32094279342e-06 -2.72845360493e-05)
(2.81500728152e-06 1.09564179914e-06 -2.60543178653e-05)
(2.90288724544e-06 8.82448340006e-07 -2.49876008996e-05)
(2.97235281627e-06 6.78271908546e-07 -2.41067830056e-05)
(3.02314804792e-06 4.80406155555e-07 -2.34274824025e-05)
(3.060759921e-06 2.85890508971e-07 -2.29574443959e-05)
(3.07658491844e-06 9.54248268679e-08 -2.26874584749e-05)
(2.93604155097e-07 3.41558624906e-06 -3.05671717047e-05)
(7.61982761968e-07 3.342637565e-06 -3.01555824859e-05)
(1.22995100196e-06 3.17888306718e-06 -2.94723989068e-05)
(1.63909152993e-06 2.95065577421e-06 -2.8582261366e-05)
(1.99240134713e-06 2.67626991894e-06 -2.75215735012e-05)
(2.28319626959e-06 2.37700532424e-06 -2.63347619168e-05)
(2.51286579001e-06 2.07149361572e-06 -2.5088383157e-05)
(2.68856820464e-06 1.7736449143e-06 -2.38530413335e-05)
(2.82077262222e-06 1.49065726048e-06 -2.26868435465e-05)
(2.91927011318e-06 1.22488808827e-06 -2.16302466245e-05)
(2.99194642562e-06 9.75997063556e-07 -2.07111936315e-05)
(3.0453234217e-06 7.41692328116e-07 -1.99492432273e-05)
(3.08077027639e-06 5.19647764779e-07 -1.93576844411e-05)
(3.10581327155e-06 3.06205958311e-07 -1.89431076085e-05)
(3.11255239576e-06 1.01605447281e-07 -1.86955091446e-05)
(3.04381737019e-07 3.6163430331e-06 -2.31987364635e-05)
(7.75464250094e-07 3.52784891096e-06 -2.28683637514e-05)
(1.24726344848e-06 3.34574761501e-06 -2.23062202648e-05)
(1.6518000124e-06 3.09658910238e-06 -2.16067983196e-05)
(1.99443851532e-06 2.79928245179e-06 -2.07771637356e-05)
(2.26916794692e-06 2.47644038119e-06 -1.98551984468e-05)
(2.47935842346e-06 2.14735007885e-06 -1.88916187924e-05)
(2.63350631981e-06 1.82659815724e-06 -1.79392188136e-05)
(2.74258906085e-06 1.52246786953e-06 -1.70393044452e-05)
(2.81676849926e-06 1.23887552585e-06 -1.62212142924e-05)
(2.86504683231e-06 9.76769045869e-07 -1.55079974914e-05)
(2.89554334745e-06 7.34134257604e-07 -1.49156662586e-05)
(2.91094463014e-06 5.0878531565e-07 -1.44533510573e-05)
(2.91959024435e-06 2.96742772566e-07 -1.4124880599e-05)
(2.91512627444e-06 9.78201070184e-08 -1.39197864826e-05)
(2.70825045758e-07 3.19274175559e-06 -1.43531582341e-05)
(6.75527549733e-07 3.10353508961e-06 -1.41088540555e-05)
(1.07782869567e-06 2.93011010002e-06 -1.37535482437e-05)
(1.41886003341e-06 2.69990860725e-06 -1.33057787497e-05)
(1.70004253124e-06 2.4285285018e-06 -1.27825923774e-05)
(1.91840182087e-06 2.13631329652e-06 -1.22020010778e-05)
(2.07840579258e-06 1.84022943971e-06 -1.15972998311e-05)
(2.18850491044e-06 1.55322336736e-06 -1.10007835562e-05)
(2.25885863513e-06 1.28297633583e-06 -1.04364824674e-05)
(2.29891782967e-06 1.03362595156e-06 -9.92187462652e-06)
(2.31759476245e-06 8.06476860456e-07 -9.47255426015e-06)
(2.32302943297e-06 5.99495131674e-07 -9.09872549418e-06)
(2.31803682885e-06 4.11367820492e-07 -8.80469889586e-06)
(2.31079067064e-06 2.38073940662e-07 -8.5935288894e-06)
(2.29695879823e-06 7.78887216609e-08 -8.45589198626e-06)
(1.35371765384e-07 1.64538599478e-06 -4.75042951708e-06)
(3.44475013927e-07 1.583532849e-06 -4.66097454098e-06)
(5.43883181208e-07 1.48263035269e-06 -4.53241322926e-06)
(7.09012504147e-07 1.35207440397e-06 -4.37892672704e-06)
(8.38975388785e-07 1.20169396984e-06 -4.19921293281e-06)
(9.33223702755e-07 1.04260747605e-06 -4.00106846965e-06)
(9.95247315231e-07 8.84392901972e-07 -3.79578592445e-06)
(1.03078990222e-06 7.34132988338e-07 -3.59421256395e-06)
(1.04614253988e-06 5.95919196229e-07 -3.40377279379e-06)
(1.04715810985e-06 4.71763075928e-07 -3.23007912791e-06)
(1.03930964404e-06 3.61967638856e-07 -3.07885900527e-06)
(1.02736413186e-06 2.64883990876e-07 -2.95328908672e-06)
(1.01324269758e-06 1.79555336905e-07 -2.85418401435e-06)
(9.99991879667e-07 1.03100597562e-07 -2.78392418392e-06)
(9.90385837699e-07 3.24074954476e-08 -2.73532085693e-06)
(6.16421354518e-08 -5.75685417701e-08 -4.96562471741e-05)
(1.7492558648e-07 -6.40477042811e-08 -4.92410320002e-05)
(2.86356459813e-07 -6.73650421516e-08 -4.84270088098e-05)
(3.88888495838e-07 -7.53417346022e-08 -4.72838360026e-05)
(4.84078978197e-07 -8.73802201459e-08 -4.58757465212e-05)
(5.69378728862e-07 -1.00145275231e-07 -4.42663455145e-05)
(6.41966213507e-07 -1.11182544451e-07 -4.25279349457e-05)
(7.00586433112e-07 -1.17400057446e-07 -4.07507877735e-05)
(7.46873883935e-07 -1.1640707892e-07 -3.90330749285e-05)
(7.84375106117e-07 -1.07489250995e-07 -3.74605822813e-05)
(8.16746263289e-07 -9.12055235399e-08 -3.60964362909e-05)
(8.46536430352e-07 -6.99120716692e-08 -3.49838521416e-05)
(8.72993507182e-07 -4.69103211232e-08 -3.41480124389e-05)
(8.93796246351e-07 -2.69944137714e-08 -3.36004660049e-05)
(9.0848545428e-07 -9.23160737663e-09 -3.33280304061e-05)
(6.61289682146e-08 6.23129905545e-08 -4.83754183297e-05)
(1.84898200247e-07 5.23826758592e-08 -4.79607405274e-05)
(3.02943394607e-07 4.83370100558e-08 -4.71279778494e-05)
(4.11838135235e-07 3.52633406046e-08 -4.59714807735e-05)
(5.12367271251e-07 1.78567513395e-08 -4.455333044e-05)
(6.01714636321e-07 1.13335190498e-10 -4.29378724275e-05)
(6.77473460258e-07 -1.49666524124e-08 -4.12003140615e-05)
(7.39316416196e-07 -2.42429649564e-08 -3.94353411236e-05)
(7.89852925456e-07 -2.60269890382e-08 -3.77417589574e-05)
(8.33258040082e-07 -2.07795819242e-08 -3.62010433087e-05)
(8.73287502502e-07 -1.0630554529e-08 -3.48701366182e-05)
(9.11974026943e-07 5.32979996541e-10 -3.37870781771e-05)
(9.46831494915e-07 8.20934579484e-09 -3.29726069656e-05)
(9.74157252022e-07 8.64962315196e-09 -3.24357548537e-05)
(9.90988774289e-07 4.14294547585e-09 -3.21646284301e-05)
(7.27798076343e-08 2.3893747237e-07 -4.66774602244e-05)
(2.02372988384e-07 2.33887730409e-07 -4.62320890343e-05)
(3.31725557427e-07 2.23454995799e-07 -4.53869695765e-05)
(4.49639255716e-07 2.01259056656e-07 -4.42238712765e-05)
(5.5749746495e-07 1.72869420533e-07 -4.28047727775e-05)
(6.52196148907e-07 1.4358839551e-07 -4.11937620357e-05)
(7.32127573091e-07 1.17408354544e-07 -3.94705947743e-05)
(7.98036949482e-07 9.76306891036e-08 -3.77328676712e-05)
(8.53353175324e-07 8.52418455392e-08 -3.60769521813e-05)
(9.02370832821e-07 7.86943661322e-08 -3.45779753832e-05)
(9.48278729559e-07 7.48297004969e-08 -3.32862141264e-05)
(9.92257576577e-07 6.93662418116e-08 -3.2234647955e-05)
(1.03066263071e-06 5.80918402372e-08 -3.14407505474e-05)
(1.06055270486e-06 3.87396696177e-08 -3.09126150339e-05)
(1.07807993308e-06 1.39845819436e-08 -3.06382997937e-05)
(8.29956076695e-08 5.02323511127e-07 -4.4277175374e-05)
(2.26893588411e-07 4.95060461436e-07 -4.38328277259e-05)
(3.71783713084e-07 4.73344880992e-07 -4.29915628508e-05)
(5.0320064837e-07 4.36448919998e-07 -4.18468147517e-05)
(6.22235068513e-07 3.9033887696e-07 -4.04547996303e-05)
(7.25676533602e-07 3.41945509756e-07 -3.88784861608e-05)
(8.12582814156e-07 2.96369498487e-07 -3.7200016948e-05)
(8.84628685235e-07 2.57222694497e-07 -3.55167169544e-05)
(9.45808532866e-07 2.25086059267e-07 -3.39200254844e-05)
(1.0002953752e-06 1.97861320939e-07 -3.24778448336e-05)
(1.05070684477e-06 1.72150133895e-07 -3.12341695109e-05)
(1.09770115471e-06 1.44017222826e-07 -3.02180993207e-05)
(1.13697456875e-06 1.10093938375e-07 -2.94454981213e-05)
(1.16676463211e-06 6.91109541472e-08 -2.89241245815e-05)
(1.18368622771e-06 2.37027015678e-08 -2.864274838e-05)
(9.67970385821e-08 8.14741039547e-07 -4.09972016595e-05)
(2.60644737285e-07 7.99029423446e-07 -4.05467546438e-05)
(4.26164795175e-07 7.64476457374e-07 -3.972432747e-05)
(5.74844442607e-07 7.09623108247e-07 -3.86210714326e-05)
(7.07749247997e-07 6.42031410373e-07 -3.72867062764e-05)
(8.21695982105e-07 5.69834497391e-07 -3.57810586191e-05)
(9.16467570082e-07 4.99312212507e-07 -3.41854926585e-05)
(9.9455258905e-07 4.34539169055e-07 -3.25931693736e-05)
(1.06029320838e-06 3.76166593678e-07 -3.10875285456e-05)
(1.11762616585e-06 3.22289153953e-07 -2.97280876656e-05)
(1.16882243654e-06 2.70064951873e-07 -2.85528442248e-05)
(1.21461727726e-06 2.1643174196e-07 -2.75878572228e-05)
(1.25087000132e-06 1.58934071262e-07 -2.68491775873e-05)
(1.2777339066e-06 9.70476322494e-08 -2.63446791791e-05)
(1.29230980013e-06 3.26185458926e-08 -2.60632067361e-05)
(1.12151926055e-07 1.14409788198e-06 -3.654888176e-05)
(2.98109080805e-07 1.12142642618e-06 -3.6120569833e-05)
(4.86611353677e-07 1.07125278527e-06 -3.5342981418e-05)
(6.5339246455e-07 9.95938905335e-07 -3.4319834676e-05)
(8.00443215307e-07 9.03821959291e-07 -3.30895287655e-05)
(9.24351153019e-07 8.04479541014e-07 -3.17071273243e-05)
(1.0257229054e-06 7.0522857664e-07 -3.02489024998e-05)
(1.10767400228e-06 6.10838297326e-07 -2.87991959397e-05)
(1.17478374506e-06 5.22561117698e-07 -2.74302992312e-05)
(1.23087906659e-06 4.39376597326e-07 -2.6192581378e-05)
(1.27837940828e-06 3.595137531e-07 -2.5118799089e-05)
(1.3187896234e-06 2.80835307784e-07 -2.42320168708e-05)
(1.34871892828e-06 2.01474619973e-07 -2.3548048187e-05)
(1.37050900031e-06 1.20955096805e-07 -2.30751906042e-05)
(1.38167286148e-06 4.02124230329e-08 -2.28020984115e-05)
(1.27184629318e-07 1.4280592565e-06 -3.07145540504e-05)
(3.32250592591e-07 1.39989818269e-06 -3.03019020679e-05)
(5.3863454789e-07 1.33407357351e-06 -2.96176099327e-05)
(7.19508210288e-07 1.23917777708e-06 -2.87251585844e-05)
(8.76025048317e-07 1.12381941931e-06 -2.76608046846e-05)
(1.00521815988e-06 9.98963398865e-07 -2.64688888272e-05)
(1.10840635157e-06 8.72761358156e-07 -2.52163298121e-05)
(1.18925233456e-06 7.50800853044e-07 -2.39740799408e-05)
(1.25252535369e-06 6.35249059536e-07 -2.28005134888e-05)
(1.302146145e-06 5.26287633662e-07 -2.17363796976e-05)
(1.34115783162e-06 4.23245879095e-07 -2.08102280414e-05)
(1.37232916773e-06 3.24596439269e-07 -2.00421614908e-05)
(1.39318114132e-06 2.28875198946e-07 -1.94456564745e-05)
(1.40821658395e-06 1.35330082904e-07 -1.90277843705e-05)
(1.41468201746e-06 4.45286895697e-08 -1.87764761479e-05)
(1.34187607238e-07 1.57531883412e-06 -2.3285250494e-05)
(3.43785035076e-07 1.53945428834e-06 -2.2952263856e-05)
(5.55586517834e-07 1.46307449632e-06 -2.23900263332e-05)
(7.37351142991e-07 1.35514893891e-06 -2.16886768262e-05)
(8.91270892863e-07 1.22564793573e-06 -2.08563867552e-05)
(1.01499399392e-06 1.08541346702e-06 -1.99305270919e-05)
(1.11041994371e-06 9.43172660019e-07 -1.89620597473e-05)
(1.1817241236e-06 8.04994041057e-07 -1.80039419835e-05)
(1.2337955009e-06 6.73959370629e-07 -1.70977003135e-05)
(1.27078936628e-06 5.51337599242e-07 -1.62730948774e-05)
(1.29657889756e-06 4.37219019188e-07 -1.55537412596e-05)
(1.31501270855e-06 3.30223386498e-07 -1.49557607578e-05)
(1.32428969893e-06 2.29248632498e-07 -1.44884006542e-05)
(1.33029787736e-06 1.3383903301e-07 -1.4155983969e-05)
(1.33038489608e-06 4.37100266127e-08 -1.3947246165e-05)
(1.20215283271e-07 1.41963267799e-06 -1.43365254316e-05)
(3.04207961544e-07 1.38087857052e-06 -1.40906991847e-05)
(4.87092547488e-07 1.3057155297e-06 -1.37351196179e-05)
(6.4139152125e-07 1.20394267815e-06 -1.32868945999e-05)
(7.6868961188e-07 1.08347099597e-06 -1.27628250273e-05)
(8.67337788699e-07 9.54132876725e-07 -1.21807247319e-05)
(9.40000982861e-07 8.23348912308e-07 -1.15738379585e-05)
(9.90598288442e-07 6.96696886464e-07 -1.0974389881e-05)
(1.02365617206e-06 5.77321607683e-07 -1.04065212807e-05)
(1.04319525034e-06 4.66901510196e-07 -9.8881151333e-06)
(1.05329609615e-06 3.65786441793e-07 -9.4351116767e-06)
(1.05785206495e-06 2.72515696651e-07 -9.05744532484e-06)
(1.05533473249e-06 1.87135233068e-07 -8.75986922452e-06)
(1.0532071253e-06 1.08616282775e-07 -8.54615676288e-06)
(1.0471013882e-06 3.51745023141e-08 -8.40706794283e-06)
(5.69032628553e-08 7.02469761782e-07 -4.62808777922e-06)
(1.48605826848e-07 6.75547678564e-07 -4.54002251312e-06)
(2.3497598281e-07 6.32356253493e-07 -4.41316407696e-06)
(3.065748588e-07 5.76152574024e-07 -4.2621454933e-06)
(3.62533314518e-07 5.11443982562e-07 -4.08524519355e-06)
(4.0288634399e-07 4.43348891662e-07 -3.88993889151e-06)
(4.29246408251e-07 3.75948787722e-07 -3.6872367564e-06)
(4.44242135344e-07 3.12171685693e-07 -3.4877634765e-06)
(4.50620647013e-07 2.53679311828e-07 -3.29891691255e-06)
(4.50929434113e-07 2.01259791696e-07 -3.12647262115e-06)
(4.47617485731e-07 1.54865256585e-07 -2.97617883671e-06)
(4.42817079708e-07 1.13451558892e-07 -2.8509727117e-06)
(4.36266199254e-07 7.70742356509e-08 -2.75241863144e-06)
(4.30774808854e-07 4.44013265943e-08 -2.68252419622e-06)
(4.26347556432e-07 1.36837427417e-08 -2.63391216721e-06)
(-3.81513351105e-08 -1.35833526045e-06 -4.98521762394e-05)
(-1.11877492802e-07 -1.33459433163e-06 -4.94372491967e-05)
(-1.84212126944e-07 -1.29152833542e-06 -4.86244433714e-05)
(-2.54277000581e-07 -1.23680667703e-06 -4.74828479175e-05)
(-3.19709062882e-07 -1.17215346317e-06 -4.60760844277e-05)
(-3.80243040301e-07 -1.09603691109e-06 -4.44670860909e-05)
(-4.35696800598e-07 -1.00917075858e-06 -4.27280796275e-05)
(-4.85503248498e-07 -9.12356423606e-07 -4.09498007657e-05)
(-5.28617446111e-07 -8.06541417379e-07 -3.9230708196e-05)
(-5.63784702017e-07 -6.9268846682e-07 -3.76564049706e-05)
(-5.8995102932e-07 -5.71602740176e-07 -3.6289834304e-05)
(-6.06228658625e-07 -4.45072529033e-07 -3.51747106034e-05)
(-6.13677742584e-07 -3.15631801345e-07 -3.43366136923e-05)
(-6.16049933535e-07 -1.88086482985e-07 -3.37871821279e-05)
(-6.18057398971e-07 -6.34140700883e-08 -3.3512578303e-05)
(-3.98304357122e-08 -1.2293597597e-06 -4.85596148217e-05)
(-1.17985617266e-07 -1.20914867531e-06 -4.81452230218e-05)
(-1.91541881707e-07 -1.16243839433e-06 -4.73131846118e-05)
(-2.59956337824e-07 -1.10775050198e-06 -4.61574630233e-05)
(-3.22615293212e-07 -1.04313840662e-06 -4.47395567078e-05)
(-3.79249773041e-07 -9.67380107116e-07 -4.31232936815e-05)
(-4.29406780993e-07 -8.8132355114e-07 -4.13842453766e-05)
(-4.72101587675e-07 -7.85952530037e-07 -3.96176210888e-05)
(-5.05979483354e-07 -6.82710932693e-07 -3.79223604084e-05)
(-5.29695988824e-07 -5.73487373302e-07 -3.63795864799e-05)
(-5.42455131546e-07 -4.60659279093e-07 -3.50460709238e-05)
(-5.44199998455e-07 -3.47839030626e-07 -3.39604304647e-05)
(-5.38093778076e-07 -2.39231466475e-07 -3.31438169328e-05)
(-5.29953993768e-07 -1.39091141099e-07 -3.26054286288e-05)
(-5.26718769047e-07 -4.51743662267e-08 -3.23320881352e-05)
(-4.02192352253e-08 -1.10884768154e-06 -4.68626833975e-05)
(-1.17888931418e-07 -1.08290306591e-06 -4.64182400522e-05)
(-1.88807659456e-07 -1.03564496633e-06 -4.5572345752e-05)
(-2.5412937472e-07 -9.80734799689e-07 -4.440905599e-05)
(-3.12893924353e-07 -9.16549639874e-07 -4.29890092336e-05)
(-3.649040439e-07 -8.41999157248e-07 -4.13760004666e-05)
(-4.09204050017e-07 -7.58049203109e-07 -3.96503163727e-05)
(-4.44493015654e-07 -6.66101746769e-07 -3.791009836e-05)
(-4.69413277054e-07 -5.68336104683e-07 -3.62518264914e-05)
(-4.83105713717e-07 -4.67547021638e-07 -3.47502794715e-05)
(-4.85724775676e-07 -3.66978782842e-07 -3.34556658164e-05)
(-4.78449408248e-07 -2.70558923156e-07 -3.2401459091e-05)
(-4.65989614852e-07 -1.82093862437e-07 -3.16053443181e-05)
(-4.54145358752e-07 -1.03961252789e-07 -3.10754197538e-05)
(-4.49399289677e-07 -3.34315981289e-08 -3.07995810836e-05)
(-3.9386231371e-08 -9.68392221522e-07 -4.44683474134e-05)
(-1.15798765698e-07 -9.41857641793e-07 -4.40228989092e-05)
(-1.83683379651e-07 -8.96630591932e-07 -4.31803864162e-05)
(-2.44628930908e-07 -8.43701226294e-07 -4.20342579796e-05)
(-2.98329732443e-07 -7.82392877189e-07 -4.06402418019e-05)
(-3.4433454382e-07 -7.11687709751e-07 -3.90610356723e-05)
(-3.81538835065e-07 -6.32819081192e-07 -3.73793720879e-05)
(-4.08649528402e-07 -5.47689269258e-07 -3.56930704649e-05)
(-4.24689023308e-07 -4.59116168497e-07 -3.40936088198e-05)
(-4.29610098596e-07 -3.70404036367e-07 -3.26485249394e-05)
(-4.24581275186e-07 -2.84891104476e-07 -3.14018059569e-05)
(-4.11665078842e-07 -2.05956629227e-07 -3.03830117031e-05)
(-3.96505618843e-07 -1.36322273562e-07 -2.96081065015e-05)
(-3.843739436e-07 -7.67049306648e-08 -2.90850382483e-05)
(-3.79545376389e-07 -2.45376633523e-08 -2.88029184867e-05)
(-3.71480162491e-08 -8.24752222356e-07 -4.11894138042e-05)
(-1.08994081131e-07 -8.02444785921e-07 -4.0737698309e-05)