/*--------------------------------*- C++ -*----------------------------------*\
| =========                 |                                                 |
| \\      /  F ield         | foam-extend: Open Source CFD                    |
|  \\    /   O peration     | Version:     4.1                                |
|   \\  /    A nd           | Web:         http://www.foam-extend.org         |
|    \\/     M anipulation  |                                                 |
\*---------------------------------------------------------------------------*/
FoamFile
{
    version     2.0;
    format      ascii;
    class       vectorField;
    location    "1";
    object      solidsCellD_iteration14;
}
// * * * * * * * * * * * * * * * * * * * * * * * * * * * * * * * * * * * * * //


1050
(
(2.42160050926e-07 1.77604502042e-06 -4.70897288701e-05)
(6.65649282146e-07 1.72336901699e-06 -4.66862748572e-05)
(1.08375252548e-06 1.63781093494e-06 -4.59120837383e-05)
(1.47192893234e-06 1.51889991555e-06 -4.48274138789e-05)
(1.83172923202e-06 1.37269020656e-06 -4.34924757949e-05)
(2.15522916662e-06 1.20657292704e-06 -4.19661594559e-05)
(2.43173422476e-06 1.03068795848e-06 -4.03163485748e-05)
(2.65362421378e-06 8.57944769846e-07 -3.86288989502e-05)
(2.82282467457e-06 6.99424014977e-07 -3.69977704413e-05)
(2.94899886668e-06 5.6045000223e-07 -3.55055537349e-05)
(3.04384570529e-06 4.41119029752e-07 -3.42129427755e-05)
(3.11679987138e-06 3.37156323326e-07 -3.31605303328e-05)
(3.17289730091e-06 2.41832917402e-07 -3.23717165619e-05)
(3.21382191918e-06 1.47108571159e-07 -3.1854839759e-05)
(3.23315239301e-06 4.91993200989e-08 -3.16002045734e-05)
(2.53972122886e-07 2.00997342235e-06 -4.59537470329e-05)
(6.98128042803e-07 1.94847821325e-06 -4.55650678861e-05)
(1.13918758595e-06 1.84857406534e-06 -4.47752434761e-05)
(1.54381158954e-06 1.71017321542e-06 -4.36833851399e-05)
(1.91577856629e-06 1.54232456749e-06 -4.2345247747e-05)
(2.24653212809e-06 1.35568629271e-06 -4.08196872563e-05)
(2.52616288677e-06 1.16279875535e-06 -3.91761522843e-05)
(2.74929870719e-06 9.77786564616e-07 -3.75044663754e-05)
(2.92080169653e-06 8.10744322196e-07 -3.58993501882e-05)
(3.0524860081e-06 6.64632395475e-07 -3.44394672881e-05)
(3.15679545051e-06 5.36796375984e-07 -3.31794591158e-05)
(3.24243017572e-06 4.20448574009e-07 -3.21549180842e-05)
(3.31209558224e-06 3.07278878189e-07 -3.13859389314e-05)
(3.36496418265e-06 1.89262218497e-07 -3.08795044605e-05)
(3.39137480854e-06 6.53123547905e-08 -3.06279267408e-05)
(2.80432960693e-07 2.40897479583e-06 -4.43622473827e-05)
(7.59365838812e-07 2.35048322876e-06 -4.39307504391e-05)
(1.23395414411e-06 2.233194309e-06 -4.31325843358e-05)
(1.66795529785e-06 2.06964481382e-06 -4.20362078048e-05)
(2.06296449042e-06 1.87223473399e-06 -4.06993170689e-05)
(2.40999406478e-06 1.65476715432e-06 -3.91805861371e-05)
(2.7000437222e-06 1.4323090818e-06 -3.75539200634e-05)
(2.93077274447e-06 1.22008550469e-06 -3.59115862379e-05)
(3.11016884678e-06 1.02724894963e-06 -3.43455395443e-05)
(3.25159854038e-06 8.54715172608e-07 -3.29280997252e-05)
(3.36721069085e-06 6.97953498838e-07 -3.17071594634e-05)
(3.46439747067e-06 5.49254138585e-07 -3.0713527258e-05)
(3.54397793567e-06 4.00707234919e-07 -2.99643245048e-05)
(3.60499897901e-06 2.45268998861e-07 -2.94661180304e-05)
(3.63498228502e-06 8.50060170576e-08 -2.92115629844e-05)
(3.10183529296e-07 3.01356137688e-06 -4.20725947244e-05)
(8.32655206475e-07 2.94225978462e-06 -4.16545419439e-05)
(1.35649942459e-06 2.80005228602e-06 -4.08614604544e-05)
(1.83015355812e-06 2.60024197343e-06 -3.97840322707e-05)
(2.25760254492e-06 2.35897673942e-06 -3.84729272898e-05)
(2.6285572608e-06 2.09414457351e-06 -3.69868652873e-05)
(2.93579172292e-06 1.82419544754e-06 -3.5402606746e-05)
(3.18020954873e-06 1.56581918106e-06 -3.38124007655e-05)
(3.37245505265e-06 1.3276771553e-06 -3.23035643246e-05)
(3.52673685753e-06 1.10947734918e-06 -3.09415338062e-05)
(3.65452489958e-06 9.05932287197e-07 -2.97678961489e-05)
(3.76217430056e-06 7.09642798084e-07 -2.88094554478e-05)
(3.84921579258e-06 5.13737053688e-07 -2.80813664122e-05)
(3.91515782064e-06 3.11681929889e-07 -2.75898526852e-05)
(3.94829215402e-06 1.07824276129e-07 -2.73286537057e-05)
(3.52113268913e-07 3.74050440425e-06 -3.89816527784e-05)
(9.31315176634e-07 3.65749803681e-06 -3.85547607271e-05)
(1.5144540088e-06 3.48678451334e-06 -3.77763809923e-05)
(2.03696300565e-06 3.2443735298e-06 -3.67357696269e-05)
(2.50348747501e-06 2.95057082456e-06 -3.54762545434e-05)
(2.90290620113e-06 2.62743519708e-06 -3.40544361077e-05)
(3.23022847151e-06 2.29701126151e-06 -3.25470193086e-05)
(3.48958497319e-06 1.97765340826e-06 -3.10426245659e-05)
(3.69377825789e-06 1.67840198484e-06 -2.96209598249e-05)
(3.8573977225e-06 1.39920975316e-06 -2.83392275706e-05)
(3.99130546415e-06 1.13545413778e-06 -2.72328118302e-05)
(4.10165659685e-06 8.81213145306e-07 -2.63251061878e-05)
(4.18832979716e-06 6.31238775263e-07 -2.56311614389e-05)
(4.25237610637e-06 3.79461985783e-07 -2.51574488471e-05)
(4.28392646648e-06 1.30992384995e-07 -2.48972928434e-05)
(3.99084144331e-07 4.52927273416e-06 -3.47982029458e-05)
(1.04069889301e-06 4.43208855716e-06 -3.43932391075e-05)
(1.68891187825e-06 4.22200808504e-06 -3.36543428823e-05)
(2.26247158322e-06 3.92969993924e-06 -3.26877331608e-05)
(2.76814688852e-06 3.57518001197e-06 -3.1525290331e-05)
(3.19427499623e-06 3.18563532384e-06 -3.02191169553e-05)
(3.53870980273e-06 2.78606926464e-06 -2.88414262544e-05)
(3.80858647018e-06 2.39665205251e-06 -2.7472640138e-05)
(4.01842002696e-06 2.02758896561e-06 -2.61817616411e-05)
(4.18304948563e-06 1.68042776371e-06 -2.50169190066e-05)
(4.31327015511e-06 1.35223763278e-06 -2.40081463658e-05)
(4.41601872737e-06 1.03872617297e-06 -2.31755624516e-05)
(4.49291808095e-06 7.3617065319e-07 -2.25335805341e-05)
(4.54751795779e-06 4.38516617517e-07 -2.20896358411e-05)
(4.573047344e-06 1.51030621548e-07 -2.18365586278e-05)
(4.468262785e-07 5.21978376294e-06 -2.9334797832e-05)
(1.13916199455e-06 5.10241942745e-06 -2.89423610543e-05)
(1.83975844474e-06 4.85708793755e-06 -2.82939710187e-05)
(2.45472020763e-06 4.51522524318e-06 -2.74490722546e-05)
(2.98756488645e-06 4.10359380841e-06 -2.64418828579e-05)
(3.42852852504e-06 3.65153955212e-06 -2.53139912913e-05)
(3.77813095144e-06 3.18720984817e-06 -2.41293233067e-05)
(4.04633506175e-06 2.73237992855e-06 -2.2955985246e-05)
(4.24895942869e-06 2.29894102412e-06 -2.18496999758e-05)
(4.4011973248e-06 1.8909850644e-06 -2.08488664448e-05)
(4.51463923915e-06 1.50801349498e-06 -1.99793732273e-05)
(4.59808145741e-06 1.14698905638e-06 -1.92589640439e-05)
(4.65565628062e-06 8.04953690211e-07 -1.86997007249e-05)
(4.69370888945e-06 4.7533441016e-07 -1.83082524556e-05)
(4.70907683995e-06 1.63423971541e-07 -1.8076446554e-05)
(4.71009591063e-07 5.57560312747e-06 -2.23973595608e-05)
(1.17938380809e-06 5.43641490184e-06 -2.20886157175e-05)
(1.89803096295e-06 5.16160039162e-06 -2.15483094333e-05)
(2.51743001728e-06 4.78698311053e-06 -2.08835996008e-05)
(3.04520946711e-06 4.33835416995e-06 -2.00934285129e-05)
(3.47189977264e-06 3.84839593833e-06 -1.92153990117e-05)
(3.80148388521e-06 3.34587177183e-06 -1.82979927018e-05)
(4.04596299681e-06 2.853369441e-06 -1.73924373989e-05)
(4.22180804738e-06 2.38404670473e-06 -1.65383113008e-05)
(4.34445569166e-06 1.94438070553e-06 -1.57629122034e-05)
(4.4269176995e-06 1.53622260803e-06 -1.50874807092e-05)
(4.48040683374e-06 1.15724484013e-06 -1.45272557728e-05)
(4.51140069524e-06 8.04490220494e-07 -1.40906480062e-05)
(4.5276990859e-06 4.70756299974e-07 -1.37815631748e-05)
(4.52997023643e-06 1.61628891405e-07 -1.35902133362e-05)
(4.3462695859e-07 5.04727094856e-06 -1.4079565626e-05)
(1.05665183839e-06 4.90977738934e-06 -1.3846045858e-05)
(1.68791467019e-06 4.64313446001e-06 -1.35081875449e-05)
(2.2278232225e-06 4.28930478291e-06 -1.30791598008e-05)
(2.67612199265e-06 3.87062717283e-06 -1.25784665175e-05)
(3.02901160931e-06 3.41671077259e-06 -1.20223761733e-05)
(3.29192537118e-06 2.9538014533e-06 -1.14437602097e-05)
(3.47731825512e-06 2.50217302973e-06 -1.08744765681e-05)
(3.60050224295e-06 2.07406689613e-06 -1.03376643199e-05)
(3.67574952802e-06 1.67635674833e-06 -9.8489981165e-06)
(3.7161726547e-06 1.31180850358e-06 -9.42260639569e-06)
(3.73372696875e-06 9.78365412732e-07 -9.06870798233e-06)
(3.73544047787e-06 6.73689223213e-07 -8.7910885001e-06)
(3.72897240869e-06 3.90762078661e-07 -8.59242829185e-06)
(3.71807798842e-06 1.34403370777e-07 -8.46295231281e-06)
(2.61691835833e-07 3.01891491443e-06 -5.05211423184e-06)
(6.27639400028e-07 2.91379956801e-06 -4.96554080009e-06)
(9.94221528993e-07 2.73863054722e-06 -4.83618804076e-06)
(1.30106286899e-06 2.51044856452e-06 -4.68383421644e-06)
(1.54704705542e-06 2.24558935665e-06 -4.50461383663e-06)
(1.73071861421e-06 1.96226039711e-06 -4.30727375208e-06)
(1.85755903696e-06 1.67714049674e-06 -4.10325115797e-06)
(1.93690700908e-06 1.40300824126e-06 -3.90388224279e-06)
(1.9791735119e-06 1.14746946836e-06 -3.71659652686e-06)
(1.99399450175e-06 9.14593339018e-07 -3.5462678966e-06)
(1.99058376131e-06 7.05838025555e-07 -3.39815449216e-06)
(1.97728512917e-06 5.19466348643e-07 -3.27582337985e-06)
(1.95903605742e-06 3.53665936004e-07 -3.17940346806e-06)
(1.93982242006e-06 2.03777395203e-07 -3.1112468719e-06)
(1.92684217828e-06 7.07347919581e-08 -3.06361191129e-06)
(1.50150764948e-07 9.05263804288e-07 -4.72819854193e-05)
(4.21095393729e-07 8.83378520752e-07 -4.6876893045e-05)
(6.86187995236e-07 8.40212745112e-07 -4.61037472163e-05)
(9.33539561923e-07 7.79413309232e-07 -4.50218372108e-05)
(1.16359420852e-06 7.03655641974e-07 -4.36905817628e-05)
(1.37084514401e-06 6.17909246399e-07 -4.21672567245e-05)
(1.54867504377e-06 5.27855696557e-07 -4.05186188594e-05)
(1.69318913477e-06 4.40557601842e-07 -3.88310612673e-05)
(1.80654055084e-06 3.61773980983e-07 -3.7199580479e-05)
(1.89524969523e-06 2.93787261498e-07 -3.57071059424e-05)
(1.9666139297e-06 2.35948099753e-07 -3.44140293439e-05)
(2.02599913505e-06 1.84840845721e-07 -3.33609821565e-05)
(2.0749585425e-06 1.35771447095e-07 -3.25718187982e-05)
(2.11376928605e-06 8.3381152641e-08 -3.20561632981e-05)
(2.13967663134e-06 2.83802746905e-08 -3.18016615354e-05)
(1.57495066433e-07 1.05126345996e-06 -4.61324091376e-05)
(4.40873225133e-07 1.02120765128e-06 -4.57435572978e-05)
(7.19992776236e-07 9.71552046017e-07 -4.49549017674e-05)
(9.77640117731e-07 8.99569575506e-07 -4.3863399982e-05)
(1.2152692342e-06 8.1162030835e-07 -4.25249439619e-05)
(1.42696171298e-06 7.14505558058e-07 -4.09971760278e-05)
(1.60677560835e-06 6.15211664575e-07 -3.93494257791e-05)
(1.75230699628e-06 5.21319327894e-07 -3.76726137685e-05)
(1.86732505902e-06 4.37825329851e-07 -3.60626928217e-05)
(1.95938768956e-06 3.65512983062e-07 -3.45988149825e-05)
(2.03602120574e-06 3.01971376039e-07 -3.33355086321e-05)
(2.10205969706e-06 2.42251400128e-07 -3.2308600676e-05)
(2.15745182936e-06 1.80682521469e-07 -3.15381285872e-05)
(2.20157355386e-06 1.12710027763e-07 -3.10317919073e-05)
(2.22926645485e-06 3.92187229621e-08 -3.07793344371e-05)
(1.72069948784e-07 1.30874892159e-06 -4.45699365998e-05)
(4.76794628004e-07 1.28296396805e-06 -4.41384196001e-05)
(7.76604830291e-07 1.22139970953e-06 -4.3340548695e-05)
(1.05111838642e-06 1.1320954808e-06 -4.22430351259e-05)
(1.30153330341e-06 1.02353598798e-06 -4.09035378475e-05)
(1.52167251544e-06 9.0501324675e-07 -3.93796796668e-05)
(1.70658701197e-06 7.8544893321e-07 -3.77457102318e-05)
(1.85579923994e-06 6.73173044775e-07 -3.60953627016e-05)
(1.97479277502e-06 5.7253312435e-07 -3.45220523417e-05)
(2.07181437566e-06 4.82978405274e-07 -3.30986856525e-05)
(2.15402417449e-06 4.00857592263e-07 -3.18731134222e-05)
(2.22544850671e-06 3.20697499462e-07 -3.08763580453e-05)
(2.28473561331e-06 2.37086508725e-07 -3.01251438188e-05)
(2.33190200581e-06 1.46460174172e-07 -2.962608958e-05)
(2.35909256817e-06 5.02831096203e-08 -2.9369912929e-05)
(1.91361701145e-07 1.71458536163e-06 -4.23048586084e-05)
(5.23586173898e-07 1.68211448225e-06 -4.18841371218e-05)
(8.53142284799e-07 1.60213065889e-06 -4.10915897964e-05)
(1.15207171365e-06 1.48703233433e-06 -4.00120921631e-05)
(1.42202561076e-06 1.3474956991e-06 -3.86974467434e-05)
(1.65629491609e-06 1.19572662836e-06 -3.72050575009e-05)
(1.85112784533e-06 1.04299383469e-06 -3.56122973662e-05)
(2.00799559323e-06 8.98649034024e-07 -3.40129080279e-05)
(2.13386954271e-06 7.66791595161e-07 -3.24955944473e-05)
(2.23737923822e-06 6.46185378496e-07 -3.11263200643e-05)
(2.32523102072e-06 5.32765146946e-07 -2.99466641928e-05)
(2.40094062468e-06 4.21343609501e-07 -2.89837824675e-05)
(2.46241163949e-06 3.07262039524e-07 -2.82529758778e-05)
(2.51067259247e-06 1.87391800886e-07 -2.77603794984e-05)
(2.53690559459e-06 6.35301357594e-08 -2.74977747417e-05)
(2.17211712004e-07 2.209411568e-06 -3.92223150779e-05)
(5.85940710073e-07 2.16527119488e-06 -3.87947149855e-05)
(9.52978399723e-07 2.06470605666e-06 -3.80169466345e-05)
(1.28245606583e-06 1.91935531765e-06 -3.69746263228e-05)
(1.57650129831e-06 1.74309456458e-06 -3.57117805455e-05)
(1.82804435644e-06 1.55071774531e-06 -3.42836150981e-05)
(2.03477061907e-06 1.35596205077e-06 -3.27674534558e-05)
(2.20002810209e-06 1.16938990554e-06 -3.12532416632e-05)
(2.3319747664e-06 9.95496830187e-07 -2.98219173319e-05)
(2.43939302011e-06 8.33381414036e-07 -2.85312241193e-05)
(2.52868289241e-06 6.79565790701e-07 -2.74166664677e-05)
(2.60344351096e-06 5.29861001548e-07 -2.65019988653e-05)
(2.66192668078e-06 3.80666427711e-07 -2.58027906624e-05)
(2.70693278584e-06 2.29358763425e-07 -2.5325693146e-05)
(2.72914636128e-06 7.71007990689e-08 -2.50626763164e-05)
(2.45907648207e-07 2.74106945543e-06 -3.50255031909e-05)
(6.54482609623e-07 2.68652079688e-06 -3.46201266255e-05)
(1.06231065452e-06 2.55887972199e-06 -3.38809394643e-05)
(1.42335316992e-06 2.37904916823e-06 -3.29121127284e-05)
(1.74131540582e-06 2.16105621205e-06 -3.17455468964e-05)
(2.00872510129e-06 1.92296990846e-06 -3.0432269156e-05)
(2.22506020448e-06 1.68054082288e-06 -2.90451515266e-05)
(2.39536345513e-06 1.44571499969e-06 -2.76657065452e-05)
(2.52876004032e-06 1.22398228647e-06 -2.63639084422e-05)
(2.63420950995e-06 1.01572526502e-06 -2.51884154561e-05)
(2.71829418935e-06 8.18810728159e-07 -2.41696661015e-05)
(2.78542788159e-06 6.30151858792e-07 -2.33282683655e-05)
(2.83503630913e-06 4.4694877125e-07 -2.26793107729e-05)
(2.8721403208e-06 2.66507351537e-07 -2.22304698798e-05)
(2.88775345393e-06 8.90485215908e-08 -2.19740738605e-05)
(2.73904805207e-07 3.1968407589e-06 -2.95106023355e-05)
(7.1408548735e-07 3.12994143315e-06 -2.91130686342e-05)
(1.15290225269e-06 2.97741519801e-06 -2.84653606449e-05)
(1.53786352515e-06 2.76430781952e-06 -2.76180067966e-05)
(1.87064090449e-06 2.50762628859e-06 -2.66065405756e-05)
(2.14503790083e-06 2.22731613038e-06 -2.54716229587e-05)
(2.36217350676e-06 1.94107217242e-06 -2.42777606293e-05)
(2.52871564425e-06 1.66212645932e-06 -2.30938542562e-05)
(2.65457181212e-06 1.39728747675e-06 -2.19762941609e-05)
(2.7490158191e-06 1.14872226017e-06 -2.09639910572e-05)
(2.81941478034e-06 9.15956005836e-07 -2.0083619575e-05)
(2.87174186773e-06 6.96720303406e-07 -1.93537001521e-05)
(2.90701513348e-06 4.88607604125e-07 -1.87870683588e-05)
(2.93237321123e-06 2.8835858275e-07 -1.83903222631e-05)
(2.93928508978e-06 9.57680293373e-08 -1.81552446946e-05)
(2.85142275366e-07 3.40948823543e-06 -2.24644954297e-05)
(7.30686384234e-07 3.32736330144e-06 -2.21513121096e-05)
(1.17596444866e-06 3.15716698073e-06 -2.16111538111e-05)
(1.55882038929e-06 2.92335850719e-06 -2.09440874672e-05)
(1.88348148714e-06 2.64387309831e-06 -2.01500834138e-05)
(2.1443975305e-06 2.3398725416e-06 -1.9266046346e-05)
(2.34457160382e-06 2.02967271149e-06 -1.83408100201e-05)
(2.49193248005e-06 1.72714788445e-06 -1.74260264033e-05)
(2.59682352166e-06 1.44016569859e-06 -1.65616076638e-05)
(2.66880119688e-06 1.1724761118e-06 -1.57752829721e-05)
(2.71631220582e-06 9.2496750278e-07 -1.50892679892e-05)
(2.74696460848e-06 6.95690204438e-07 -1.45195870705e-05)
(2.76309642551e-06 4.82407042237e-07 -1.4075276721e-05)
(2.77273716465e-06 2.81642375323e-07 -1.37599262489e-05)
(2.76870265187e-06 9.2902035594e-08 -1.35642960653e-05)
(2.55223845405e-07 3.03245982382e-06 -1.39631880043e-05)
(6.41085603735e-07 2.94893827723e-06 -1.37257830367e-05)
(1.02358358389e-06 2.78551597584e-06 -1.33889012307e-05)
(1.34854544291e-06 2.56809887993e-06 -1.29588884066e-05)
(1.61675798481e-06 2.31135655153e-06 -1.24563767327e-05)
(1.82552561149e-06 2.03444348551e-06 -1.18970212351e-05)
(1.97899237505e-06 1.75345928799e-06 -1.13136468676e-05)
(2.08507626905e-06 1.48078508558e-06 -1.07381979992e-05)
(2.15336426293e-06 1.22375670442e-06 -1.01939455605e-05)
(2.19273254586e-06 9.86397655151e-07 -9.69696217355e-06)
(2.21163634226e-06 7.70012563877e-07 -9.26224332737e-06)
(2.21784057753e-06 5.72661308024e-07 -8.90043614336e-06)
(2.21384981604e-06 3.93067695503e-07 -8.61581379372e-06)
(2.20768060862e-06 2.27728818593e-07 -8.41108329178e-06)
(2.19418798767e-06 7.46100727472e-08 -8.27804044321e-06)
(1.29118571603e-07 1.57927897227e-06 -4.63808603555e-06)
(3.29905703007e-07 1.52057663017e-06 -4.55373958316e-06)
(5.21351880392e-07 1.42434453743e-06 -4.4292804229e-06)
(6.80215489462e-07 1.29965689946e-06 -4.28214816764e-06)
(8.05373011608e-07 1.15582771089e-06 -4.1089848324e-06)
(8.96360793968e-07 1.0034070079e-06 -3.9176272784e-06)
(9.5643276569e-07 8.51596879487e-07 -3.71895454716e-06)
(9.91068130756e-07 7.07259789869e-07 -3.52383434907e-06)
(1.00625956712e-06 5.74356323464e-07 -3.33948688007e-06)
(1.00754998247e-06 4.54858164313e-07 -3.17090737043e-06)
(1.00021181588e-06 3.49106232456e-07 -3.02364717108e-06)
(9.88871584973e-07 2.55523184971e-07 -2.90121982192e-06)
(9.75280893907e-07 1.73281153475e-07 -2.80421547061e-06)
(9.62544147469e-07 9.96104492827e-08 -2.73521522007e-06)
(9.53072334862e-07 3.1431396528e-08 -2.68761581165e-06)
(5.48116409289e-08 -1.41738649124e-07 -4.74763825859e-05)
(1.55024479757e-07 -1.46448498018e-07 -4.70726133399e-05)
(2.53263322435e-07 -1.47841936136e-07 -4.63021759855e-05)
(3.4414082383e-07 -1.52945836785e-07 -4.52224359061e-05)
(4.28627434767e-07 -1.61043307065e-07 -4.38930156471e-05)
(5.04236318878e-07 -1.68946197809e-07 -4.23708616698e-05)
(5.68162271523e-07 -1.7430406362e-07 -4.0722665056e-05)
(6.19225207036e-07 -1.74158392805e-07 -3.90350276755e-05)
(6.59090831454e-07 -1.66286122624e-07 -3.74030325005e-05)
(6.91285501039e-07 -1.50107509865e-07 -3.59094729767e-05)
(7.19411043155e-07 -1.26259181052e-07 -3.46145949982e-05)
(7.45900610008e-07 -9.7169216881e-08 -3.35594717402e-05)
(7.69963504545e-07 -6.63052168949e-08 -3.27681455042e-05)
(7.89207275252e-07 -3.85864755081e-08 -3.22507081566e-05)
(8.0314607678e-07 -1.30867828599e-08 -3.19934481147e-05)
(5.88142253069e-08 -1.86193899706e-08 -4.62969053854e-05)
(1.64197733245e-07 -2.72685822754e-08 -4.59067918785e-05)
(2.69142879479e-07 -2.92052843695e-08 -4.51188660771e-05)
(3.66285964533e-07 -3.93444090081e-08 -4.40268330674e-05)
(4.56078660691e-07 -5.28884621515e-08 -4.268729411e-05)
(5.35745838942e-07 -6.59225137444e-08 -4.11576578946e-05)
(6.0292765629e-07 -7.55456604738e-08 -3.95078652631e-05)
(6.57356225531e-07 -7.8753799056e-08 -3.78293005421e-05)
(7.01639336567e-07 -7.39886787687e-08 -3.62180038033e-05)
(7.39917844106e-07 -6.1810764513e-08 -3.47528256397e-05)
(7.75893754662e-07 -4.4408722991e-08 -3.34879963863e-05)
(8.1150395159e-07 -2.57141000647e-08 -3.24597429828e-05)
(8.44265871928e-07 -1.03958722082e-08 -3.16879210791e-05)
(8.70334355314e-07 -2.36922709067e-09 -3.11806284564e-05)
(8.8664893242e-07 4.65415589247e-10 -3.09264925076e-05)
(6.51434687616e-08 1.56907738374e-07 -4.473878865e-05)
(1.81220268758e-07 1.536989116e-07 -4.43117099644e-05)
(2.97307477796e-07 1.45785192681e-07 -4.35122784178e-05)
(4.03418269409e-07 1.27011771015e-07 -4.24131127214e-05)
(5.00566417328e-07 1.02862554876e-07 -4.10707276821e-05)
(5.85709536318e-07 7.85743815426e-08 -3.95427324249e-05)
(6.57281372893e-07 5.80154647556e-08 -3.79042018974e-05)
(7.16057188913e-07 4.43495476977e-08 -3.62495480801e-05)
(7.65424870567e-07 3.84659957732e-08 -3.46725003051e-05)
(8.0962575697e-07 3.87458225589e-08 -3.32458357554e-05)
(8.51792643157e-07 4.19928908646e-08 -3.2017264797e-05)
(8.93014108314e-07 4.39000933086e-08 -3.10181678232e-05)
(9.2964539663e-07 4.00863376901e-08 -3.02651374888e-05)
(9.58547631108e-07 2.81327453078e-08 -2.97650179628e-05)
(9.75750329998e-07 1.04738562401e-08 -2.9507045103e-05)
(7.51078759509e-08 4.16047498307e-07 -4.24955589901e-05)
(2.05289882872e-07 4.11206130972e-07 -4.20732145553e-05)
(3.36544462509e-07 3.92599279166e-07 -4.1278403262e-05)
(4.56099193807e-07 3.59891291925e-07 -4.01961889866e-05)
(5.64480072998e-07 3.18770240282e-07 -3.88776196194e-05)
(6.58572343841e-07 2.76013697859e-07 -3.73799418493e-05)
(7.37445206857e-07 2.36574761875e-07 -3.57813056886e-05)
(8.0275123939e-07 2.03914662841e-07 -3.41761262177e-05)
(8.58396894623e-07 1.78533013415e-07 -3.26534782034e-05)
(9.08476526636e-07 1.58279842679e-07 -3.12792758038e-05)
(9.55532759152e-07 1.39729123618e-07 -3.0095100694e-05)
(1.00011280418e-06 1.18942712348e-07 -2.91284829277e-05)
(1.03788065188e-06 9.2380268056e-08 -2.83946456077e-05)
(1.06682677172e-06 5.86841920316e-08 -2.79001192172e-05)
(1.08347951574e-06 2.02578297117e-08 -2.76343948009e-05)
(8.84814008504e-08 7.22427496113e-07 -3.9414133462e-05)
(2.38393549852e-07 7.08728277294e-07 -3.89834510803e-05)
(3.899508328e-07 6.78121863418e-07 -3.82043857463e-05)
(5.26697046284e-07 6.28483476585e-07 -3.71595339754e-05)
(6.49032940328e-07 5.66979441019e-07 -3.58929698331e-05)
(7.53914345849e-07 5.01436460909e-07 -3.44596529016e-05)
(8.41089585474e-07 4.37930097861e-07 -3.2937517273e-05)
(9.12961008114e-07 3.80356464797e-07 -3.14170709821e-05)
(9.73736376774e-07 3.29282575647e-07 -2.99796026271e-05)
(1.02724245844e-06 2.82761827259e-07 -2.86828936856e-05)
(1.07563707647e-06 2.3792419606e-07 -2.756265196e-05)
(1.11949643203e-06 1.91724630183e-07 -2.66431464699e-05)
(1.15460593508e-06 1.41557363308e-07 -2.59399685424e-05)
(1.18082530269e-06 8.68688851266e-08 -2.54604314373e-05)
(1.19519014824e-06 2.92675892967e-08 -2.5194251817e-05)
(1.03298631749e-07 1.04533404e-06 -3.52039138243e-05)
(2.75237220556e-07 1.02478651368e-06 -3.47976149432e-05)
(4.49638102335e-07 9.79202700551e-07 -3.40574513453e-05)
(6.04508417116e-07 9.10102366729e-07 -3.30860744085e-05)
(7.41175788419e-07 8.25211767814e-07 -3.19156242763e-05)
(8.56430258225e-07 7.33642191445e-07 -3.05970530168e-05)
(9.50799132713e-07 6.42405881082e-07 -2.92037081723e-05)
(1.0272419454e-06 5.5603919553e-07 -2.78175567215e-05)
(1.09014861634e-06 4.75683533589e-07 -2.65088808185e-05)
(1.14318110122e-06 4.00280101696e-07 -2.532644744e-05)
(1.18857961075e-06 3.28030743932e-07 -2.43010995876e-05)
(1.22763195803e-06 2.56836581652e-07 -2.34541484142e-05)
(1.25684638222e-06 1.84716502522e-07 -2.28008633047e-05)
(1.27830305285e-06 1.11226506374e-07 -2.234956223e-05)
(1.28940457292e-06 3.70380177221e-08 -2.20904374243e-05)
(1.18036378733e-07 1.32661712983e-06 -2.96571446082e-05)
(3.09430366288e-07 1.30112885352e-06 -2.92588502748e-05)
(5.0202382196e-07 1.2403072576e-06 -2.86102275781e-05)
(6.71457509729e-07 1.15226326186e-06 -2.77607687854e-05)
(8.1816565538e-07 1.04490482219e-06 -2.67459129126e-05)
(9.39461542181e-07 9.28606473911e-07 -2.56063094772e-05)
(1.03654547946e-06 8.11111744995e-07 -2.4406738086e-05)
(1.11286122912e-06 6.97707813575e-07 -2.32164029704e-05)
(1.17292880988e-06 5.90404530188e-07 -2.20919515185e-05)
(1.22042548299e-06 4.89341529886e-07 -2.10725113901e-05)
(1.25814765889e-06 3.93826609174e-07 -2.01853103256e-05)
(1.28862771302e-06 3.02383718453e-07 -1.94495029521e-05)
(1.30928298619e-06 2.13458669825e-07 -1.88780940221e-05)
(1.32439686215e-06 1.26427528856e-07 -1.84781506403e-05)
(1.33099881361e-06 4.16477526494e-08 -1.823935463e-05)
(1.25330806026e-07 1.47940337419e-06 -2.25536259487e-05)
(3.22573073553e-07 1.44650148572e-06 -2.22378912462e-05)
(5.21969972596e-07 1.37567764399e-06 -2.16980057987e-05)
(6.9361751796e-07 1.27479169258e-06 -2.10290501471e-05)
(8.39083514642e-07 1.15346827777e-06 -2.02326557257e-05)
(9.56295969067e-07 1.02183028846e-06 -1.93450284824e-05)
(1.04697570264e-06 8.88186008236e-07 -1.84152150237e-05)
(1.11503697589e-06 7.58279064639e-07 -1.74949966524e-05)
(1.16506910662e-06 6.35024408279e-07 -1.66244804328e-05)
(1.20091602407e-06 5.19669032409e-07 -1.58317461964e-05)
(1.22618828647e-06 4.12295580511e-07 -1.51396213398e-05)
(1.24454000567e-06 3.11567406641e-07 -1.45643406798e-05)
(1.25403057833e-06 2.16339098006e-07 -1.41148902823e-05)
(1.2603936251e-06 1.26396928477e-07 -1.37952484149e-05)
(1.26069077232e-06 4.13283923334e-08 -1.35956693102e-05)
(1.13190247511e-07 1.3456840532e-06 -1.39546552555e-05)
(2.88276580082e-07 1.30970882728e-06 -1.37162866689e-05)
(4.62108212855e-07 1.23927404257e-06 -1.33786386956e-05)
(6.09053591107e-07 1.14344795097e-06 -1.29481764392e-05)
(7.30401110998e-07 1.02973803106e-06 -1.24446652643e-05)
(8.24643659812e-07 9.07422217073e-07 -1.1883779247e-05)
(8.94305713857e-07 7.83505293078e-07 -1.12981805047e-05)
(9.43049039661e-07 6.63311800055e-07 -1.07197296512e-05)
(9.75114822142e-07 5.4985925623e-07 -1.01717655524e-05)
(9.9422690684e-07 4.44843109128e-07 -9.67074086444e-06)
(1.00428487788e-06 3.48618028907e-07 -9.23212516432e-06)
(1.00904658866e-06 2.59761429102e-07 -8.86631000511e-06)
(1.00679662325e-06 1.78344124071e-07 -8.57773811059e-06)
(1.00504298561e-06 1.03695244111e-07 -8.36991879182e-06)
(9.99112689503e-07 3.37102826443e-08 -8.23622269099e-06)
(5.44282654023e-08 6.74586710498e-07 -4.52517023671e-06)
(1.42386183121e-07 6.49232763635e-07 -4.44180839104e-06)
(2.25408515875e-07 6.0800513842e-07 -4.31909369286e-06)
(2.94439391437e-07 5.54340086562e-07 -4.17412764403e-06)
(3.48419247227e-07 4.92421583357e-07 -4.00355457369e-06)
(3.87455800225e-07 4.27135702114e-07 -3.81478643845e-06)
(4.13038749679e-07 3.62396992607e-07 -3.61845960963e-06)
(4.2767481751e-07 3.01038004241e-07 -3.42521857715e-06)
(4.33961703247e-07 2.44681155129e-07 -3.24223111405e-06)
(4.34302948551e-07 1.94139166819e-07 -3.07465402147e-06)
(4.31104705723e-07 1.49392198374e-07 -2.92814149001e-06)
(4.26453414745e-07 1.09415022703e-07 -2.80591526595e-06)
(4.19964509796e-07 7.43604767385e-08 -2.70921976003e-06)
(4.14629245364e-07 4.29392388761e-08 -2.64066387619e-06)
(4.10244537366e-07 1.33205765296e-08 -2.59308027394e-06)
(-3.82011656086e-08 -1.33998883845e-06 -4.76697305539e-05)
(-1.11968634015e-07 -1.31590786154e-06 -4.72675293339e-05)
(-1.84126659006e-07 -1.27393421898e-06 -4.64982894699e-05)
(-2.53676892819e-07 -1.22062026156e-06 -4.54199289101e-05)
(-3.18704094093e-07 -1.15730281033e-06 -4.40914648946e-05)
(-3.79034528293e-07 -1.08252687505e-06 -4.25693274344e-05)
(-4.34434581542e-07 -9.97053513219e-07 -4.09202663645e-05)
(-4.8424937355e-07 -9.01678252413e-07 -3.92313793849e-05)
(-5.27383295281e-07 -7.97323795165e-07 -3.75980594959e-05)
(-5.62559733433e-07 -6.84921670783e-07 -3.61029499104e-05)
(-5.88725506629e-07 -5.65249404304e-07 -3.48059954666e-05)
(-6.05050261486e-07 -4.40096069283e-07 -3.37487197385e-05)
(-6.12591098804e-07 -3.12047244327e-07 -3.29556220592e-05)
(-6.15052132554e-07 -1.85959276165e-07 -3.24368947468e-05)
(-6.16877269888e-07 -6.26088986664e-08 -3.21779451001e-05)
(-3.96591033262e-08 -1.2090593186e-06 -4.64825168508e-05)
(-1.17461460957e-07 -1.18889076117e-06 -4.60912942703e-05)
(-1.90371025888e-07 -1.14326901302e-06 -4.53041791255e-05)
(-2.58046967723e-07 -1.09026253965e-06 -4.42127792126e-05)
(-3.20154553304e-07 -1.0275076321e-06 -4.28731675475e-05)
(-3.76553509679e-07 -9.53677169493e-07 -4.13424499406e-05)
(-4.2671106919e-07 -8.69586849234e-07 -3.96910374483e-05)
(-4.69562578195e-07 -7.7620481787e-07 -3.80108029699e-05)
(-5.03709950963e-07 -6.74913865868e-07 -3.63979487377e-05)
(-5.27774073011e-07 -5.675132707e-07 -3.49310194372e-05)
(-5.4093324665e-07 -4.56286579079e-07 -3.36639402921e-05)
(-5.43129573776e-07 -3.44774843625e-07 -3.26334828797e-05)
(-5.37408548226e-07 -2.3721843793e-07 -3.18598888245e-05)
(-5.29518331151e-07 -1.3793188844e-07 -3.13514148244e-05)
(-5.26211537799e-07 -4.4791568164e-08 -3.10951774438e-05)
(-3.98939154712e-08 -1.08830920903e-06 -4.49222198167e-05)
(-1.16775788828e-07 -1.06273053209e-06 -4.44971208164e-05)
(-1.86796116865e-07 -1.01662050013e-06 -4.36969527938e-05)
(-2.51279554927e-07 -9.63485889949e-07 -4.25977455148e-05)
(-3.09460579934e-07 -9.01427390114e-07 -4.12543145382e-05)
(-3.61272073582e-07 -8.29115870728e-07 -3.97242271445e-05)
(-4.05670089858e-07 -7.47435901761e-07 -3.8083200928e-05)
(-4.41271928066e-07 -6.57749157053e-07 -3.64261623162e-05)
(-4.66670078313e-07 -5.62139742634e-07 -3.48469963911e-05)
(-4.80947232323e-07 -4.63268740456e-07 -3.34181660532e-05)
(-4.84194816618e-07 -3.64245367711e-07 -3.21871689225e-05)
(-4.77541960221e-07 -2.68924498379e-07 -3.11858331704e-05)
(-4.65525613592e-07 -1.81165758379e-07 -3.04308834851e-05)
(-4.53917183365e-07 -1.03474734714e-07 -2.99291671706e-05)
(-4.49104149301e-07 -3.32755806138e-08 -2.96697858282e-05)
(-3.88903997546e-08 -9.49296510229e-07 -4.2685368827e-05)
(-1.14255094604e-07 -9.22903319809e-07 -4.22614731149e-05)
(-1.81135897403e-07 -8.78948115814e-07 -4.14653281782e-05)
(-2.41198260856e-07 -8.27787664321e-07 -4.03817841728e-05)
(-2.94326084547e-07 -7.68666390721e-07 -3.906118021e-05)
(-3.40160356544e-07 -7.00299279654e-07 -3.75606602687e-05)
(-3.77515076496e-07 -6.23788223593e-07 -3.59590346504e-05)
(-4.05023664791e-07 -5.40967294419e-07 -3.43511558566e-05)
(-4.21652689673e-07 -4.54541321664e-07 -3.28261582478e-05)
(-4.27277643294e-07 -3.67658908782e-07 -3.14495756838e-05)
(-4.22982254292e-07 -2.83508760824e-07 -3.02628284744e-05)
(-4.10758590306e-07 -2.05421540634e-07 -2.92938777267e-05)
(-3.96086065381e-07 -1.36217647471e-07 -2.85579729156e-05)
(-3.84242656428e-07 -7.67408929809e-08 -2.80618555566e-05)
(-3.79446669288e-07 -2.45606904848e-08 -2.77953844171e-05)
(-3.65669088474e-08 -8.07738728674e-07 -3.96039495387e-05)
(-1.07264865686e-07 -7.86089003031e-07 -3.91715603223e-05)