/*--------------------------------*- C++ -*----------------------------------*\
| =========                 |                                                 |
| \\      /  F ield         | foam-extend: Open Source CFD                    |
|  \\    /   O peration     | Version:     4.1                                |
|   \\  /    A nd           | Web:         http://www.foam-extend.org         |
|    \\/     M anipulation  |                                                 |
\*---------------------------------------------------------------------------*/
FoamFile
{
    version     2.0;
    format      ascii;
    class       vectorField;
    location    "1";
    object      solidsCellD_iteration18;
}
// * * * * * * * * * * * * * * * * * * * * * * * * * * * * * * * * * * * * * //


1050
(
(3.28069018565e-07 2.85319010749e-06 -5.54721611546e-05)
(9.00170234834e-07 2.78416922832e-06 -5.50055769288e-05)
(1.47785481745e-06 2.66651577821e-06 -5.40583430553e-05)
(2.00800482733e-06 2.50033175586e-06 -5.27228501839e-05)
(2.49593918294e-06 2.29485758477e-06 -5.10770204631e-05)
(2.93196112584e-06 2.05984423654e-06 -4.92050742482e-05)
(3.30651143288e-06 1.80703042877e-06 -4.71967195928e-05)
(3.6124596405e-06 1.55088166731e-06 -4.51533014197e-05)
(3.85201433795e-06 1.30434161234e-06 -4.31812675571e-05)
(4.03541955777e-06 1.07446830572e-06 -4.13750956904e-05)
(4.17528127542e-06 8.62509542778e-07 -3.9806594548e-05)
(4.28230102827e-06 6.64703581503e-07 -3.85252882604e-05)
(4.36260899729e-06 4.75446702764e-07 -3.75602817985e-05)
(4.41899824314e-06 2.86615183514e-07 -3.69239817158e-05)
(4.44620590423e-06 9.62658983869e-08 -3.66070756709e-05)
(3.47199148461e-07 3.10212192102e-06 -5.39076586088e-05)
(9.46837268154e-07 3.02108809842e-06 -5.34269867338e-05)
(1.55078798418e-06 2.88528124901e-06 -5.24621602811e-05)
(2.10048652993e-06 2.69465129598e-06 -5.111764148e-05)
(2.60229334516e-06 2.46202668969e-06 -4.94713358563e-05)
(3.04588420586e-06 2.2012463378e-06 -4.76082474785e-05)
(3.42241766192e-06 1.92689326891e-06 -4.56185718322e-05)
(3.72711871019e-06 1.65487162319e-06 -4.36056697509e-05)
(3.96553634298e-06 1.39722255553e-06 -4.16754292136e-05)
(4.15044542372e-06 1.15879341124e-06 -3.99170979123e-05)
(4.29548543578e-06 9.38305785009e-07 -3.83954316853e-05)
(4.4109476239e-06 7.29658584414e-07 -3.71538397783e-05)
(4.50094933917e-06 5.25867137131e-07 -3.6216854946e-05)
(4.56642683726e-06 3.18429243865e-07 -3.55948878134e-05)
(4.5991487997e-06 1.0867945154e-07 -3.52773327406e-05)
(3.79882546549e-07 3.53683492885e-06 -5.17465191252e-05)
(1.01979747606e-06 3.45327974585e-06 -5.12498363241e-05)
(1.66299217698e-06 3.29431947413e-06 -5.02715382444e-05)
(2.24462238216e-06 3.07175698516e-06 -4.89262121534e-05)
(2.77052899465e-06 2.8023073508e-06 -4.72902197844e-05)
(3.22990506264e-06 2.50391374836e-06 -4.5447059091e-05)
(3.6149567379e-06 2.1943106364e-06 -4.34892310188e-05)
(3.9242038874e-06 1.89076669688e-06 -4.15217116781e-05)
(4.16678593676e-06 1.60435201479e-06 -3.96470115563e-05)
(4.35741485499e-06 1.33785568382e-06 -3.79469009421e-05)
(4.50974557648e-06 1.08811049849e-06 -3.64784812955e-05)
(4.63303088266e-06 8.47918043131e-07 -3.52793619529e-05)
(4.72971964192e-06 6.1073544408e-07 -3.43706512028e-05)
(4.80109448699e-06 3.68534087912e-07 -3.37639897844e-05)
(4.83585865364e-06 1.26568429849e-07 -3.34468641549e-05)
(4.16775626017e-07 4.1999051748e-06 -4.88233367882e-05)
(1.10466564575e-06 4.10115571583e-06 -4.83149998108e-05)
(1.80190473808e-06 3.90948023269e-06 -4.73415514265e-05)
(2.42526992315e-06 3.64198704607e-06 -4.60223596085e-05)
(2.98411398594e-06 3.31948700978e-06 -4.44273379404e-05)
(3.46640662939e-06 2.96498616835e-06 -4.26368124401e-05)
(3.86629634465e-06 2.60016430003e-06 -4.07434922131e-05)
(4.18591690384e-06 2.24413110894e-06 -3.8850990254e-05)
(4.43755269199e-06 1.9074954777e-06 -3.70559476922e-05)
(4.6371047525e-06 1.59183646547e-06 -3.54317903592e-05)
(4.79783014538e-06 1.29325606027e-06 -3.40284564275e-05)
(4.9281436364e-06 1.00458511734e-06 -3.28788545918e-05)
(5.02939889878e-06 7.20208101827e-07 -3.2001047699e-05)
(5.1037214467e-06 4.32160045323e-07 -3.14063603017e-05)
(5.14093334252e-06 1.4866681915e-07 -3.10846181101e-05)
(4.66195904336e-07 4.99665262266e-06 -4.4942377735e-05)
(1.21328250432e-06 4.88291130755e-06 -4.44367673313e-05)
(1.9742966303e-06 4.6538218856e-06 -4.34899732456e-05)
(2.6481057744e-06 4.33375343582e-06 -4.22256804146e-05)
(3.24580829558e-06 3.94837429301e-06 -4.07062257715e-05)
(3.75466476107e-06 3.52567575866e-06 -3.9006684531e-05)
(4.1712355574e-06 3.09156691284e-06 -3.72174215853e-05)
(4.50135745591e-06 2.6672315853e-06 -3.5437435048e-05)
(4.75994690159e-06 2.26371659569e-06 -3.37549353177e-05)
(4.9636035942e-06 1.88280417154e-06 -3.2234141623e-05)
(5.12533649775e-06 1.52138253962e-06 -3.09182312999e-05)
(5.25372210957e-06 1.1735901553e-06 -2.98367093605e-05)
(5.35069210784e-06 8.35053198901e-07 -2.90062840366e-05)
(5.42015330892e-06 4.9767070624e-07 -2.8436443494e-05)
(5.45462126808e-06 1.71286885463e-07 -2.81170589318e-05)
(5.20667198257e-07 5.84673720522e-06 -3.98328847212e-05)
(1.32969527344e-06 5.71396545476e-06 -3.93435364663e-05)
(2.15830070115e-06 5.4396199052e-06 -3.84548220948e-05)
(2.88303654044e-06 5.06019185224e-06 -3.72888785869e-05)
(3.51794500538e-06 4.60384817532e-06 -3.58965487499e-05)
(4.04959846025e-06 4.10465453154e-06 -3.43460908133e-05)
(4.4777223063e-06 3.59229931086e-06 -3.27211139794e-05)
(4.81174075259e-06 3.0904395744e-06 -3.11112435947e-05)
(5.06879826542e-06 2.61152456043e-06 -2.95930328926e-05)
(5.26615482832e-06 2.15882634922e-06 -2.82206215328e-05)
(5.41731222382e-06 1.73095271601e-06 -2.7030505297e-05)
(5.53228138056e-06 1.32369424269e-06 -2.60487077452e-05)
(5.61506623717e-06 9.33826962773e-07 -2.52913423941e-05)
(5.67186376402e-06 5.52337901234e-07 -2.47666280144e-05)
(5.69898762849e-06 1.90024767732e-07 -2.44618912733e-05)
(5.73047658319e-07 6.5522845141e-06 -3.32704260741e-05)
(1.42713630943e-06 6.39749467661e-06 -3.2819073054e-05)
(2.30477183588e-06 6.08217807703e-06 -3.20343369187e-05)
(3.06538951676e-06 5.64748148218e-06 -3.10257985954e-05)
(3.72109155869e-06 5.12730202512e-06 -2.98308089348e-05)
(4.25985578078e-06 4.55922044543e-06 -2.85050229688e-05)
(4.68433419655e-06 3.97668278375e-06 -2.71208655733e-05)
(5.00729416109e-06 3.40554006903e-06 -2.57534193435e-05)
(5.24762033075e-06 2.8603403499e-06 -2.44646523528e-05)
(5.4233992654e-06 2.34675292354e-06 -2.32983898955e-05)
(5.54945028755e-06 1.86546732037e-06 -2.22849538111e-05)
(5.63813933448e-06 1.41351600211e-06 -2.14456650868e-05)
(5.69622196227e-06 9.88400756622e-07 -2.07940269837e-05)
(5.73236268425e-06 5.79953549078e-07 -2.03368987628e-05)
(5.7470448933e-06 1.99434163116e-07 -2.00596041937e-05)
(5.95722137094e-07 6.83046360673e-06 -2.51191207322e-05)
(1.44860724331e-06 6.65378095216e-06 -2.47469567441e-05)
(2.32853664397e-06 6.30713959809e-06 -2.41199128603e-05)
(3.0795332006e-06 5.83909469377e-06 -2.33329089151e-05)
(3.71569037798e-06 5.28253540728e-06 -2.24082003567e-05)
(4.22588812552e-06 4.67826345419e-06 -2.13876300384e-05)
(4.61649121926e-06 4.06067223315e-06 -2.03269539638e-05)
(4.90270514306e-06 3.45660108491e-06 -1.92821926423e-05)
(5.1043991362e-06 2.88204607031e-06 -1.82977209677e-05)
(5.24035249291e-06 2.3448536526e-06 -1.74059577054e-05)
(5.3270197341e-06 1.84738342127e-06 -1.66308699686e-05)
(5.37899126742e-06 1.38707827747e-06 -1.59879647742e-05)
(5.4052016867e-06 9.61450436899e-07 -1.54858734624e-05)
(5.41545399956e-06 5.59615471634e-07 -1.51291574483e-05)
(5.4145283641e-06 1.92539581717e-07 -1.49026840108e-05)
(5.37954760237e-07 6.01477706252e-06 -1.55397132549e-05)
(1.26462638859e-06 5.84474708185e-06 -1.52802907451e-05)
(2.01711778662e-06 5.51870650851e-06 -1.4872901133e-05)
(2.65419038193e-06 5.08827332455e-06 -1.43772286547e-05)
(3.18109934181e-06 4.58179557628e-06 -1.37994074767e-05)
(3.59226622845e-06 4.03587701101e-06 -1.31641452286e-05)
(3.89541801461e-06 3.48148322773e-06 -1.25066840921e-05)
(4.10587553805e-06 2.94236699395e-06 -1.18606895183e-05)
(4.24197223377e-06 2.43324627259e-06 -1.12518556182e-05)
(4.32121459294e-06 1.96208428326e-06 -1.07000712494e-05)
(4.35967771464e-06 1.53163257424e-06 -1.02212920215e-05)
(4.37176905965e-06 1.13930834522e-06 -9.82453459267e-06)
(4.36636625215e-06 7.82912398062e-07 -9.51334209284e-06)
(4.35278487827e-06 4.52198080495e-07 -9.29116704914e-06)
(4.33815987198e-06 1.56213691078e-07 -9.14355475187e-06)
(3.14194492381e-07 3.47453921827e-06 -5.54706309106e-06)
(7.26739867224e-07 3.35065236164e-06 -5.44069922919e-06)
(1.14805723517e-06 3.14306424433e-06 -5.2938330829e-06)
(1.49832036269e-06 2.87510460408e-06 -5.11633235827e-06)
(1.77745710167e-06 2.56572363129e-06 -4.91095953303e-06)
(1.98400696414e-06 2.23684291441e-06 -4.68659563119e-06)
(2.12490381157e-06 1.90750520213e-06 -4.45640176628e-06)
(2.21110121757e-06 1.59200954622e-06 -4.23203164057e-06)
(2.2547356641e-06 1.29908374857e-06 -4.02160105889e-06)
(2.26747416196e-06 1.03333701645e-06 -3.83177057226e-06)
(2.26014392643e-06 7.95991604888e-07 -3.66836077019e-06)
(2.2420679955e-06 5.84840622287e-07 -3.53391177443e-06)
(2.21910976366e-06 3.97630521233e-07 -3.42890471607e-06)
(2.19582630679e-06 2.28470785207e-07 -3.35547060315e-06)
(2.18062946445e-06 8.00270804112e-08 -3.3046879592e-06)
(2.0565387719e-07 1.63606240232e-06 -5.5697458774e-05)
(5.79305340169e-07 1.60443033577e-06 -5.52389816024e-05)
(9.51503475225e-07 1.54095166855e-06 -5.42928719964e-05)
(1.29411552253e-06 1.45004316781e-06 -5.29594619816e-05)
(1.61060979126e-06 1.33590029708e-06 -5.13168552648e-05)
(1.89428480989e-06 1.20503515014e-06 -4.94477713634e-05)
(2.13922848842e-06 1.06422097103e-06 -4.74408566775e-05)
(2.34175905086e-06 9.21536634673e-07 -4.53974312047e-05)
(2.50418124325e-06 7.83844964756e-07 -4.34248928265e-05)
(2.63330226062e-06 6.54382859993e-07 -4.16181161882e-05)
(2.73684021842e-06 5.33041941231e-07 -4.00488670035e-05)
(2.82089434626e-06 4.16684269891e-07 -3.8766705531e-05)
(2.88745904864e-06 3.01566235093e-07 -3.78008929739e-05)
(2.93773501404e-06 1.82779359948e-07 -3.71659739422e-05)
(2.9699214295e-06 6.21329419173e-08 -3.68489316631e-05)
(2.17471966628e-07 1.77612828284e-06 -5.41164012032e-05)
(6.07711929424e-07 1.73598461802e-06 -5.36331108268e-05)
(9.9520498585e-07 1.66373157954e-06 -5.26674084269e-05)
(1.34962772164e-06 1.55925277186e-06 -5.13217502911e-05)
(1.67432193637e-06 1.43039307458e-06 -4.96740087183e-05)
(1.96225221596e-06 1.28586012094e-06 -4.78079928077e-05)
(2.20806499833e-06 1.13394209465e-06 -4.58136983683e-05)
(2.4096131094e-06 9.83342787921e-07 -4.37953461032e-05)
(2.57103490834e-06 8.40183249536e-07 -4.18600122228e-05)
(2.70033013966e-06 7.06302847284e-07 -4.0097355062e-05)
(2.80558777056e-06 5.80051968064e-07 -3.85722975992e-05)
(2.89257153751e-06 4.57000863302e-07 -3.73282382009e-05)
(2.9619310137e-06 3.32610517017e-07 -3.63894198258e-05)
(3.01470015082e-06 2.02799850106e-07 -3.57681598753e-05)
(3.04673142e-06 6.94246132674e-08 -3.54507749401e-05)
(2.35553104854e-07 2.04882137479e-06 -5.19876267473e-05)
(6.50058590736e-07 2.00728142942e-06 -5.14888161744e-05)
(1.06065169434e-06 1.9194156386e-06 -5.05100256299e-05)
(1.4329324054e-06 1.79331503761e-06 -4.91624879929e-05)
(1.77041960064e-06 1.63963996324e-06 -4.7522867985e-05)
(2.06583533904e-06 1.46987539596e-06 -4.56735550501e-05)
(2.31486535743e-06 1.29455665514e-06 -4.37072794977e-05)
(2.51744827269e-06 1.1233164009e-06 -4.17304522905e-05)
(2.67970898537e-06 9.61639848502e-07 -3.98470721802e-05)
(2.81055280979e-06 8.10088685717e-07 -3.813947997e-05)
(2.91794185705e-06 6.65856753889e-07 -3.66651646074e-05)
(3.00704483893e-06 5.23913332798e-07 -3.54617155885e-05)
(3.07742697176e-06 3.79935720762e-07 -3.45496821177e-05)
(3.13108539774e-06 2.30517903904e-07 -3.39410829301e-05)
(3.16102199818e-06 7.82496548116e-08 -3.36218528268e-05)
(2.57986755632e-07 2.48521301609e-06 -4.90927386779e-05)
(7.02264375141e-07 2.43382615206e-06 -4.8580896787e-05)
(1.1456061186e-06 2.32296065511e-06 -4.76064789656e-05)
(1.54291645873e-06 2.16552884533e-06 -4.62837524398e-05)
(1.89954325102e-06 1.97507978284e-06 -4.46833958891e-05)
(2.20762913668e-06 1.76667702553e-06 -4.28846115252e-05)
(2.46419694283e-06 1.55352785993e-06 -4.09806551112e-05)
(2.67139991269e-06 1.34654619841e-06 -3.90767639566e-05)
(2.83716375267e-06 1.15103004969e-06 -3.72710239883e-05)
(2.97102204656e-06 9.66890395254e-07 -3.5637332214e-05)
(3.08074837212e-06 7.90960345526e-07 -3.42260700779e-05)
(3.17121175774e-06 6.18294439706e-07 -3.30704264327e-05)
(3.24141007053e-06 4.45147984745e-07 -3.21883933718e-05)
(3.29450948892e-06 2.68119117377e-07 -3.15910016602e-05)
(3.3226477661e-06 9.02973271523e-08 -3.12667090264e-05)
(2.87780784684e-07 3.01844938805e-06 -4.52129148624e-05)
(7.69995537233e-07 2.95546003968e-06 -4.47044824588e-05)
(1.2528923221e-06 2.81781053037e-06 -4.37576834871e-05)
(1.68089350755e-06 2.6233813908e-06 -4.24894461294e-05)
(2.060531461e-06 2.38916476678e-06 -4.09644306976e-05)
(2.38362980021e-06 2.13358506003e-06 -3.92562168874e-05)
(2.64883555961e-06 1.87270466473e-06 -3.7455826239e-05)
(2.8605353877e-06 1.61891296616e-06 -3.56637438536e-05)
(3.02815615966e-06 1.37797717897e-06 -3.39693904434e-05)
(3.1616356135e-06 1.15012101039e-06 -3.24373717895e-05)
(3.26876301031e-06 9.32816936232e-07 -3.11113616861e-05)
(3.3548343737e-06 7.21995728912e-07 -3.00215310265e-05)
(3.41940768611e-06 5.14685305464e-07 -2.91853630829e-05)
(3.46742927086e-06 3.07409136998e-07 -2.86120529387e-05)
(3.49090843887e-06 1.02889182629e-07 -2.82899369448e-05)
(3.20312618894e-07 3.58493875197e-06 -4.00822000258e-05)
(8.41664793088e-07 3.50822002195e-06 -3.95909302475e-05)
(1.36594864402e-06 3.33963038398e-06 -3.87039514033e-05)
(1.82453312216e-06 3.10442892412e-06 -3.75344741158e-05)
(2.22595897477e-06 2.82177235645e-06 -3.61368143178e-05)
(2.56153829774e-06 2.51401322906e-06 -3.45774300409e-05)
(2.83193236896e-06 2.19978203809e-06 -3.29407526099e-05)
(3.04361868055e-06 1.89324072952e-06 -3.13177182771e-05)
(3.20732244441e-06 1.60131935239e-06 -2.97859580576e-05)
(3.33348691711e-06 1.325444847e-06 -2.84001603405e-05)
(3.43050712924e-06 1.06436886841e-06 -2.71974710489e-05)
(3.50491643922e-06 8.15055230927e-07 -2.6204583002e-05)
(3.55765726418e-06 5.75147892297e-07 -2.54386895527e-05)
(3.59558273641e-06 3.40535980131e-07 -2.49079002649e-05)
(3.61158155221e-06 1.13355443116e-07 -2.45986087651e-05)
(3.50006163291e-07 4.04433424572e-06 -3.34580340904e-05)
(8.99070005023e-07 3.95320653122e-06 -3.30025954547e-05)
(1.45124998045e-06 3.75671034158e-06 -3.22170047855e-05)
(1.92923240909e-06 3.4847094458e-06 -3.1204771254e-05)
(2.34052873009e-06 3.15935491888e-06 -3.0003993171e-05)
(2.67728831102e-06 2.80560171912e-06 -2.86690906326e-05)
(2.94201905054e-06 2.44447040221e-06 -2.72732377692e-05)
(3.14315432057e-06 2.09177034947e-06 -2.58924338178e-05)
(3.2924991306e-06 1.75602841632e-06 -2.45894388337e-05)
(3.40121667687e-06 1.44038417389e-06 -2.34088495317e-05)
(3.47887137536e-06 1.14502283711e-06 -2.23819441648e-05)
(3.53374685444e-06 8.67639955014e-07 -2.15306086949e-05)
(3.56841492383e-06 6.06237612304e-07 -2.08693776198e-05)
(3.59151932446e-06 3.55731140795e-07 -2.04049358109e-05)
(3.59730876241e-06 1.17737359571e-07 -2.01222370915e-05)
(3.58885950861e-07 4.19941443895e-06 -2.51734170465e-05)
(9.01672715554e-07 4.09290359235e-06 -2.47936892595e-05)
(1.44867778757e-06 3.87664199344e-06 -2.41670740363e-05)
(1.91411397641e-06 3.58375544977e-06 -2.33765819061e-05)
(2.30677278258e-06 3.2360584221e-06 -2.24467398227e-05)
(2.61972385799e-06 2.86012880171e-06 -2.14182543571e-05)
(2.85761086569e-06 2.47766087186e-06 -2.03475195517e-05)
(3.03037020797e-06 2.10519479455e-06 -1.92910583278e-05)
(3.15048949089e-06 1.75235799582e-06 -1.82937460098e-05)
(3.22979332934e-06 1.42367720004e-06 -1.73888453945e-05)
(3.27904811679e-06 1.12032066666e-06 -1.66013931261e-05)
(3.30790890594e-06 8.40175785801e-07 -1.59472749138e-05)
(3.32017513397e-06 5.8129207068e-07 -1.5436100377e-05)
(3.32511657311e-06 3.3806246217e-07 -1.50721706618e-05)
(3.31913770106e-06 1.11204148386e-07 -1.48408640542e-05)
(3.14100367316e-07 3.63525843082e-06 -1.53723116113e-05)
(7.70984794732e-07 3.53005883483e-06 -1.51071479612e-05)
(1.22863801033e-06 3.328926395e-06 -1.47016492885e-05)
(1.61382624483e-06 3.06319833471e-06 -1.42050317332e-05)
(1.93048976006e-06 2.75134772186e-06 -1.36254887208e-05)
(2.17493810501e-06 2.41695340909e-06 -1.29866281177e-05)
(2.35274567907e-06 2.07910784702e-06 -1.2323860626e-05)
(2.47367194775e-06 1.75231357491e-06 -1.16708818239e-05)
(2.54924455296e-06 1.44536180549e-06 -1.10536281738e-05)
(2.5905107607e-06 1.16275733907e-06 -1.04927002766e-05)
(2.6077737614e-06 9.057931301e-07 -1.00048561945e-05)
(2.61021133072e-06 6.72294434279e-07 -9.5992956097e-06)
(2.60161890959e-06 4.60881154762e-07 -9.28067190787e-06)
(2.59077973725e-06 2.65862157961e-07 -9.05239842961e-06)
(2.57576940106e-06 8.66089039476e-08 -8.90115622851e-06)
(1.5234987091e-07 1.82456568211e-06 -5.03865295879e-06)
(3.84255444763e-07 1.75447726821e-06 -4.93577571439e-06)
(6.05492799038e-07 1.64064938352e-06 -4.79532823021e-06)
(7.87627901075e-07 1.49404547834e-06 -4.62518345661e-06)
(9.30538964801e-07 1.32589496745e-06 -4.42802242802e-06)
(1.03356335596e-06 1.14879998914e-06 -4.2118310819e-06)
(1.10087470757e-06 9.73218021881e-07 -3.98903090051e-06)
(1.13886113308e-06 8.06837397279e-07 -3.77068429124e-06)
(1.15453017334e-06 6.54185687591e-07 -3.5647289599e-06)
(1.15458929724e-06 5.17372175623e-07 -3.37802172569e-06)
(1.14508414642e-06 3.96561604945e-07 -3.21652713343e-06)
(1.13112991874e-06 2.89996730451e-07 -3.08273563622e-06)
(1.11517735123e-06 1.9630086505e-07 -2.9779759676e-06)
(1.10021889348e-06 1.1237734773e-07 -2.90384708534e-06)
(1.08996227099e-06 3.49835255134e-08 -2.85190513686e-06)
(8.24323886975e-08 2.07137301823e-07 -5.59029962687e-05)
(2.34848048967e-07 1.95283166485e-07 -5.5446501419e-05)
(3.86149066459e-07 1.85102115876e-07 -5.45020618649e-05)
(5.24062309763e-07 1.66802959481e-07 -5.31712464537e-05)
(6.51501632362e-07 1.4133185823e-07 -5.15311394628e-05)
(7.65472244379e-07 1.12775100734e-07 -4.9663897959e-05)
(8.6342882111e-07 8.40149885033e-08 -4.76580400415e-05)
(9.44184647247e-07 5.83949785293e-08 -4.56151306765e-05)
(1.0094697616e-06 3.86006427238e-08 -4.36426542444e-05)
(1.06287363485e-06 2.56601415539e-08 -4.18351332539e-05)
(1.10807108118e-06 1.91013433739e-08 -4.02642377544e-05)
(1.14783712348e-06 1.656458814e-08 -3.89797406453e-05)
(1.18135642619e-06 1.50243686071e-08 -3.8010780928e-05)
(1.20653633009e-06 1.02078360858e-08 -3.73732763629e-05)
(1.22339916452e-06 3.32151122129e-09 -3.70543176556e-05)
(8.80656409651e-08 3.19799199427e-07 -5.42915138276e-05)
(2.47202587323e-07 3.05630026764e-07 -5.38072744472e-05)
(4.05491527131e-07 2.94049545684e-07 -5.284151082e-05)
(5.50258554441e-07 2.70392589113e-07 -5.14955539397e-05)
(6.83180426936e-07 2.39267415979e-07 -4.98470619364e-05)
(8.01111411275e-07 2.05462312643e-07 -4.79794107622e-05)
(9.0181871912e-07 1.72435550074e-07 -4.59830815511e-05)
(9.85058491434e-07 1.43649937711e-07 -4.39629151185e-05)
(1.05359640981e-06 1.21109667751e-07 -4.20260547785e-05)
(1.11166896685e-06 1.04700354035e-07 -4.02616892625e-05)
(1.16311223671e-06 9.24685509921e-08 -3.87346893264e-05)
(1.21025381745e-06 8.06212559899e-08 -3.74886026526e-05)
(1.25062494946e-06 6.50170987237e-08 -3.65474007555e-05)
(1.28105502776e-06 4.23253435631e-08 -3.59233487243e-05)
(1.29922493895e-06 1.54278881517e-08 -3.56023844303e-05)
(9.59339746177e-08 4.98710637156e-07 -5.21669835814e-05)
(2.66457242682e-07 4.87836541838e-07 -5.1666734381e-05)
(4.36282302101e-07 4.68658811567e-07 -5.06866223234e-05)
(5.90193287249e-07 4.34511665065e-07 -4.93362913282e-05)
(7.30204552186e-07 3.91344279389e-07 -4.76932065705e-05)
(8.52974174023e-07 3.45063016745e-07 -4.583932913e-05)
(9.57051810477e-07 3.00168187594e-07 -4.3868100598e-05)
(1.04331111553e-06 2.60354303443e-07 -4.18867327491e-05)
(1.11539048876e-06 2.26925557381e-07 -3.99994123423e-05)
(1.17766899079e-06 1.98694926413e-07 -3.82881652567e-05)
(1.23351120943e-06 1.72739353581e-07 -3.68106027853e-05)
(1.28448230886e-06 1.44893603924e-07 -3.56044539625e-05)
(1.32709334896e-06 1.11360555973e-07 -3.4690239793e-05)
(1.35908812823e-06 7.00886217874e-08 -3.40799305256e-05)
(1.37725632752e-06 2.43839208348e-08 -3.37580053808e-05)
(1.06512020722e-07 7.71117100966e-07 -4.9288641508e-05)
(2.91652338036e-07 7.56054310037e-07 -4.87786549171e-05)
(4.78080465776e-07 7.24436375895e-07 -4.78018175155e-05)
(6.4538062747e-07 6.73688950649e-07 -4.6475341525e-05)
(7.96179449281e-07 6.10955936123e-07 -4.48701759138e-05)
(9.26946649157e-07 5.43875944604e-07 -4.30650730568e-05)
(1.0369375656e-06 4.78125923955e-07 -4.11540580581e-05)
(1.12804191107e-06 4.17800610191e-07 -3.92432408176e-05)
(1.20453539891e-06 3.63830636685e-07 -3.74310230492e-05)
(1.27074266467e-06 3.14495109325e-07 -3.57911925577e-05)
(1.32959127171e-06 2.66670467633e-07 -3.43744620699e-05)
(1.38225609653e-06 2.16511624563e-07 -3.32143348811e-05)
(1.42475725737e-06 1.61073136336e-07 -3.23289652954e-05)
(1.45616552731e-06 9.90636044101e-08 -3.17296106963e-05)
(1.47353556156e-06 3.36120524681e-08 -3.14024124524e-05)
(1.21445662819e-07 1.09548320634e-06 -4.54179090969e-05)
(3.26927737675e-07 1.07383459292e-06 -4.49083240743e-05)
(5.34429385946e-07 1.0270457528e-06 -4.39586041329e-05)
(7.18688948604e-07 9.55876666731e-07 -4.26863095292e-05)
(8.82719557857e-07 8.69047342391e-07 -4.11560767162e-05)
(1.02290903597e-06 7.75752300522e-07 -3.94410408508e-05)
(1.13933293398e-06 6.82932978683e-07 -3.76329421297e-05)
(1.23481804471e-06 5.9524790523e-07 -3.58329793507e-05)
(1.3140611159e-06 5.13756134378e-07 -3.41308411569e-05)
(1.38124646659e-06 4.36934051414e-07 -3.25911713811e-05)
(1.43912267382e-06 3.62221560514e-07 -3.12581424879e-05)
(1.48911130801e-06 2.86608323336e-07 -3.01623558902e-05)
(1.52754023865e-06 2.08008970148e-07 -2.93215220797e-05)
(1.55547700822e-06 1.25675799591e-07 -2.87452709906e-05)
(1.57038951862e-06 4.20256682545e-08 -2.84193381957e-05)
(1.38007786446e-07 1.43731118406e-06 -4.02705725273e-05)
(3.65147540178e-07 1.40786356158e-06 -3.97775064352e-05)
(5.95322055373e-07 1.34374108563e-06 -3.88893841385e-05)
(7.97048685381e-07 1.24976057276e-06 -3.77165852441e-05)
(9.7423886321e-07 1.13587432241e-06 -3.63141512894e-05)
(1.12295223624e-06 1.0130241312e-06 -3.47481324152e-05)
(1.24417873437e-06 8.89374292723e-07 -3.31036859878e-05)
(1.34150378013e-06 7.70406235564e-07 -3.14723312353e-05)
(1.41994702009e-06 6.57864896764e-07 -2.99319894618e-05)
(1.48374482776e-06 5.51083582941e-07 -2.85376221625e-05)
(1.53601043608e-06 4.48528385087e-07 -2.73270680529e-05)
(1.57905707537e-06 3.48048867036e-07 -2.63275017713e-05)
(1.61001045649e-06 2.48105042012e-07 -2.5556342093e-05)
(1.63198950956e-06 1.47847008896e-07 -2.50221499711e-05)
(1.64302099699e-06 4.89502002551e-08 -2.47089528896e-05)
(1.5335828589e-07 1.72159361763e-06 -3.36060393716e-05)
(3.9787055645e-07 1.68515095677e-06 -3.31486345142e-05)
(6.44438264158e-07 1.60475277153e-06 -3.23616312749e-05)
(8.58335121998e-07 1.48988890438e-06 -3.13463543236e-05)
(1.04292422086e-06 1.35140592949e-06 -3.01411455978e-05)
(1.19452154724e-06 1.2016940799e-06 -2.88001244446e-05)
(1.3149299222e-06 1.04999225534e-06 -2.73970410333e-05)
(1.40838898887e-06 9.02741440171e-07 -2.60082806379e-05)
(1.48021377208e-06 7.62725556225e-07 -2.4696877432e-05)
(1.53497219727e-06 6.30451231563e-07 -2.35078931838e-05)
(1.57660078233e-06 5.05438318564e-07 -2.24733397322e-05)
(1.60865207859e-06 3.86120817853e-07 -2.16154291373e-05)
(1.62911631563e-06 2.71318365132e-07 -2.09489419111e-05)
(1.64314194173e-06 1.59679059069e-07 -2.04810741676e-05)
(1.6488682888e-06 5.23705393521e-08 -2.01945542233e-05)
(1.59053084986e-07 1.8470265199e-06 -2.52518525019e-05)
(4.0373914319e-07 1.80286301754e-06 -2.48696262152e-05)
(6.51118894207e-07 1.71046456695e-06 -2.4242020227e-05)
(8.61638845797e-07 1.58249992775e-06 -2.34494460365e-05)
(1.03942296137e-06 1.42980791685e-06 -2.25163351141e-05)
(1.18139523532e-06 1.26522522955e-06 -2.14833103447e-05)
(1.29010844572e-06 1.09845591466e-06 -2.04070613376e-05)
(1.37037689856e-06 9.36474314686e-07 -1.9344282502e-05)
(1.42774666915e-06 7.82963061988e-07 -1.83401150011e-05)
(1.46724473358e-06 6.3938423539e-07 -1.74283837293e-05)
(1.49365753997e-06 5.05933746954e-07 -1.66346250587e-05)
(1.51140983361e-06 3.81255100804e-07 -1.59746689263e-05)
(1.51925254995e-06 2.64399679993e-07 -1.54585666092e-05)
(1.52360008181e-06 1.53984732705e-07 -1.5091206608e-05)
(1.52295277995e-06 5.01170296794e-08 -1.48564828248e-05)
(1.39620841169e-07 1.62438973585e-06 -1.533457444e-05)
(3.48548592272e-07 1.57819888179e-06 -1.50672108995e-05)
(5.56952891645e-07 1.48996020937e-06 -1.46624254947e-05)
(7.31850867824e-07 1.37175251074e-06 -1.41653488765e-05)
(8.75676618348e-07 1.23261028776e-06 -1.35851833332e-05)
(9.86524992676e-07 1.08387785236e-06 -1.29449208966e-05)
(1.06752854554e-06 9.33982689494e-07 -1.22800776515e-05)
(1.12321525766e-06 7.89191799644e-07 -1.1624293135e-05)
(1.15874761948e-06 6.53107828608e-07 -1.1003700731e-05)
(1.17899493324e-06 5.27416975313e-07 -1.04393561252e-05)
(1.18863574039e-06 4.12509662783e-07 -9.94814568427e-06)
(1.19190582578e-06 3.06989665383e-07 -9.53901221734e-06)
(1.18800211524e-06 2.10787950166e-07 -9.21748676049e-06)
(1.18442106809e-06 1.21636854878e-07 -8.98744867812e-06)
(1.17771533234e-06 3.89918398566e-08 -8.83331272095e-06)
(6.35366908245e-08 7.78659123155e-07 -4.89127337567e-06)
(1.65733206787e-07 7.47817333249e-07 -4.7908792378e-06)
(2.6151144062e-07 6.9928133002e-07 -4.65226447832e-06)
(3.40247248249e-07 6.36158254646e-07 -4.48532946442e-06)
(4.01710873967e-07 5.63883742703e-07 -4.2916380422e-06)
(4.45750315594e-07 4.88164204068e-07 -4.07893967308e-06)
(4.74333976614e-07 4.13458063616e-07 -3.85933474843e-06)
(4.90361208644e-07 3.42960025227e-07 -3.64365338228e-06)
(4.96912229382e-07 2.78489289297e-07 -3.43984340277e-06)
(4.96939312808e-07 2.20771986581e-07 -3.25491581544e-06)
(4.93035804491e-07 1.69717788402e-07 -3.09473603386e-06)
(4.87445760236e-07 1.24312725926e-07 -2.9616782201e-06)
(4.80343827215e-07 8.42669007398e-08 -2.85789719407e-06)
(4.74166091786e-07 4.82303320237e-08 -2.78408496116e-06)
(4.69375573912e-07 1.46549598355e-08 -2.73226733638e-06)
(-3.77091604598e-08 -1.40483569637e-06 -5.61057685637e-05)
(-1.11124651602e-07 -1.38323620845e-06 -5.56478158418e-05)
(-1.83646806503e-07 -1.33819542689e-06 -5.47046028456e-05)
(-2.54410706967e-07 -1.28064688288e-06 -5.33755344107e-05)
(-3.20376064818e-07 -1.21292944042e-06 -5.17373054544e-05)
(-3.81038546695e-07 -1.13331771922e-06 -4.98711593544e-05)
(-4.36240580562e-07 -1.04250276454e-06 -4.78653264326e-05)
(-4.85550419152e-07 -9.41412405173e-07 -4.5821776979e-05)
(-5.27954215613e-07 -8.31095421493e-07 -4.38482364417e-05)
(-5.62286661033e-07 -7.12594155753e-07 -4.20389143027e-05)
(-5.8760068144e-07 -5.86964060378e-07 -4.04654637791e-05)
(-6.02926284663e-07 -4.56226544711e-07 -3.9178149272e-05)
(-6.09530444352e-07 -3.23141281783e-07 -3.82063397234e-05)
(-6.11353267676e-07 -1.92211888095e-07 -3.75659463725e-05)
(-6.13824812634e-07 -6.488187309e-08 -3.7243862902e-05)
(-4.02686197936e-08 -1.27914618844e-06 -5.44741656163e-05)
(-1.18941796872e-07 -1.25943650546e-06 -5.39930066529e-05)
(-1.93366417046e-07 -1.21043990511e-06 -5.30273783873e-05)
(-2.62937482041e-07 -1.1521577405e-06 -5.16822294755e-05)
(-3.2640386752e-07 -1.08359224091e-06 -5.00344204045e-05)
(-3.83228850123e-07 -1.00345781658e-06 -4.81664537504e-05)
(-4.33113372683e-07 -9.12655325304e-07 -4.61689874572e-05)
(-4.75186082632e-07 -8.12310738213e-07 -4.41474786852e-05)
(-5.08105820007e-07 -7.04027211998e-07 -4.22091504186e-05)
(-5.30655251142e-07 -5.89844346541e-07 -4.04426929478e-05)
(-5.42152714316e-07 -4.72449543807e-07 -3.89130100654e-05)
(-5.42518748975e-07 -3.55745900759e-07 -3.76641574232e-05)
(-5.35281090486e-07 -2.44106281815e-07 -3.67205566424e-05)
(-5.26429318496e-07 -1.41615357726e-07 -3.6094590786e-05)
(-5.23359013367e-07 -4.58878959482e-08 -3.57714434727e-05)
(-4.06564693256e-08 -1.15895149582e-06 -5.23570606243e-05)
(-1.19811787809e-07 -1.13215430895e-06 -5.1855641627e-05)
(-1.92606718137e-07 -1.0824872825e-06 -5.08744568402e-05)
(-2.59365390614e-07 -1.02363400975e-06 -4.95234759209e-05)
(-3.19052898848e-07 -9.54762635236e-07 -4.7879470945e-05)
(-3.71202661476e-07 -8.75165283761e-07 -4.60236915944e-05)
(-4.15085605491e-07 -7.85956142121e-07 -4.40499320685e-05)
(-4.49514242419e-07 -6.88687367435e-07 -4.20660376724e-05)
(-4.73191073008e-07 -5.85747982156e-07 -4.01762212796e-05)
(-4.8547113969e-07 -4.8014451761e-07 -3.84620693851e-05)
(-4.86659710792e-07 -3.75453734901e-07 -3.69813568866e-05)
(-4.77983244649e-07 -2.75827385024e-07 -3.57722505613e-05)
(-4.64554121565e-07 -1.85098013465e-07 -3.48556277431e-05)
(-4.52232446486e-07 -1.05421564036e-07 -3.42434207295e-05)
(-4.47607222918e-07 -3.38243163925e-08 -3.39198491589e-05)
(-4.05596533399e-08 -1.01384680902e-06 -4.94839592901e-05)
(-1.19224510741e-07 -9.87679878151e-07 -4.89735255716e-05)
(-1.89034269244e-07 -9.39433917632e-07 -4.79953447463e-05)
(-2.5150869231e-07 -8.82396926767e-07 -4.66672035903e-05)
(-3.0605418283e-07 -8.16079105991e-07 -4.50599043989e-05)
(-3.52062030424e-07 -7.40084543457e-07 -4.32516915477e-05)
(-3.88687149175e-07 -6.55880944634e-07 -4.13370792409e-05)
(-4.14752071221e-07 -5.65547364871e-07 -3.94227996052e-05)
(-4.2939657924e-07 -4.72125458426e-07 -3.76072545932e-05)
(-4.32838433324e-07 -3.79133689873e-07 -3.59638851929e-05)
(-4.26390267676e-07 -2.9021425752e-07 -3.45436524271e-05)
(-4.12170771545e-07 -2.08866703128e-07 -3.33804383671e-05)
(-3.96143242809e-07 -1.37655761064e-07 -3.24926486521e-05)
(-3.83507151334e-07 -7.71430574044e-08 -3.18916713928e-05)
(-3.7859259279e-07 -2.46051091186e-08 -3.15637052583e-05)
(-3.85179554087e-08 -8.65865555497e-07 -4.56152256716e-05)
(-1.12830761597e-07 -8.41722217684e-07 -4.5104747374e-05)
(-1.7716785322e-07 -7.96410961466e-07 -4.41530672317e-05)