/*--------------------------------*- C++ -*----------------------------------*\
| =========                 |                                                 |
| \\      /  F ield         | foam-extend: Open Source CFD                    |
|  \\    /   O peration     | Version:     4.1                                |
|   \\  /    A nd           | Web:         http://www.foam-extend.org         |
|    \\/     M anipulation  |                                                 |
\*---------------------------------------------------------------------------*/
FoamFile
{
    version     2.0;
    format      ascii;
    class       vectorField;
    location    "1";
    object      solidsCellD_iteration3;
}
// * * * * * * * * * * * * * * * * * * * * * * * * * * * * * * * * * * * * * //


1050
(
(1.89254040246e-08 -4.28852503678e-07 -1.83182879594e-05)
(5.50052122194e-08 -4.34941522057e-07 -1.81779206313e-05)
(8.79239140015e-08 -4.46112404155e-07 -1.79021288697e-05)
(1.14311198941e-07 -4.59747441304e-07 -1.75159774259e-05)
(1.32988984349e-07 -4.69967145294e-07 -1.70447982741e-05)
(1.43337755301e-07 -4.7328202668e-07 -1.65174705404e-05)
(1.45279647302e-07 -4.67988214328e-07 -1.59569923472e-05)
(1.38757883729e-07 -4.52437356997e-07 -1.53849971358e-05)
(1.2436679724e-07 -4.24571323472e-07 -1.48285993242e-05)
(1.04249812011e-07 -3.83116905632e-07 -1.43177197502e-05)
(8.17756825809e-08 -3.28721070161e-07 -1.38775580904e-05)
(6.047708517e-08 -2.63766377107e-07 -1.35240695681e-05)
(4.30545280651e-08 -1.91420796892e-07 -1.32639080686e-05)
(3.11452767307e-08 -1.1493175957e-07 -1.3097080565e-05)
(2.57654842939e-08 -3.73348397117e-08 -1.30198582024e-05)
(2.17390132316e-08 -3.1786820467e-07 -1.81308739731e-05)
(6.27594769484e-08 -3.24085119422e-07 -1.79741308262e-05)
(1.00937210921e-07 -3.41195067462e-07 -1.76984092379e-05)
(1.31989084851e-07 -3.60847029936e-07 -1.73133454604e-05)
(1.54980490059e-07 -3.7730320395e-07 -1.68424406711e-05)
(1.69363670362e-07 -3.86200180751e-07 -1.63155866275e-05)
(1.75530636793e-07 -3.8586600726e-07 -1.57554321033e-05)
(1.73809216582e-07 -3.74761641736e-07 -1.51837726484e-05)
(1.65238795918e-07 -3.51084206729e-07 -1.46289417782e-05)
(1.52334665283e-07 -3.14205923532e-07 -1.41214120908e-05)
(1.38552637592e-07 -2.65743453553e-07 -1.36857676056e-05)
(1.27027702324e-07 -2.09117596738e-07 -1.33367815691e-05)
(1.19358305612e-07 -1.48320593919e-07 -1.30801362236e-05)
(1.15414892384e-07 -8.69507513479e-08 -1.291568519e-05)
(1.14083424717e-07 -2.75173808204e-08 -1.28414404869e-05)
(2.88263964485e-08 -1.48272838021e-07 -1.77092182544e-05)
(8.15066535433e-08 -1.5961322458e-07 -1.7562734962e-05)
(1.29674841801e-07 -1.80153545458e-07 -1.72982436879e-05)
(1.70955405803e-07 -2.05144856362e-07 -1.69203980582e-05)
(2.03348530588e-07 -2.2842081451e-07 -1.645549521e-05)
(2.26768472899e-07 -2.45070350328e-07 -1.59317291971e-05)
(2.41699312777e-07 -2.53235701849e-07 -1.53748475406e-05)
(2.4875791918e-07 -2.51435156456e-07 -1.48081986377e-05)
(2.493891482e-07 -2.38062731935e-07 -1.42602695405e-05)
(2.46369296624e-07 -2.12855450935e-07 -1.37603417127e-05)
(2.43052472027e-07 -1.77888369986e-07 -1.33315229804e-05)
(2.42020889853e-07 -1.36964300074e-07 -1.29875153948e-05)
(2.43991413669e-07 -9.42175968464e-08 -1.27337701054e-05)
(2.4825956908e-07 -5.34331583154e-08 -1.25704411188e-05)
(2.51347960569e-07 -1.60280108751e-08 -1.24939810563e-05)
(3.59648326202e-08 6.59919357789e-08 -1.70293149143e-05)
(1.01847405599e-07 5.569378942e-08 -1.68947380946e-05)
(1.66060846542e-07 3.18562862232e-08 -1.66350769742e-05)
(2.22643764034e-07 8.07386105125e-10 -1.62701552935e-05)
(2.69982295048e-07 -3.13674312459e-08 -1.5813988106e-05)
(3.07458410427e-07 -5.92110029253e-08 -1.52972774011e-05)
(3.35475115195e-07 -8.02953876115e-08 -1.47490577712e-05)
(3.54887799605e-07 -9.29385508501e-08 -1.41939583223e-05)
(3.67455954619e-07 -9.56088653022e-08 -1.36595881466e-05)
(3.76068171705e-07 -8.81918530946e-08 -1.31730587829e-05)
(3.83859837686e-07 -7.28423930518e-08 -1.27554575637e-05)
(3.92792634208e-07 -5.32699929732e-08 -1.2419316314e-05)
(4.02558404961e-07 -3.32259911543e-08 -1.21702205117e-05)
(4.12020191396e-07 -1.64273561993e-08 -1.20094273755e-05)
(4.17651952696e-07 -3.50733864961e-09 -1.19311581845e-05)
(4.66382374591e-08 3.15650966837e-07 -1.60277990877e-05)
(1.3282231096e-07 3.00610708267e-07 -1.58851314231e-05)
(2.17662760403e-07 2.73649574473e-07 -1.56330416205e-05)
(2.92902652248e-07 2.35326251458e-07 -1.52818060724e-05)
(3.57537508733e-07 1.92605346123e-07 -1.48405811921e-05)
(4.10848350393e-07 1.51045924393e-07 -1.4341234705e-05)
(4.53343547838e-07 1.13850835669e-07 -1.38134784077e-05)
(4.8613242025e-07 8.3103701725e-08 -1.32818202345e-05)
(5.11172336514e-07 6.04099341421e-08 -1.27719200952e-05)
(5.31312661027e-07 4.60119533249e-08 -1.23079963919e-05)
(5.4939008102e-07 3.80973580572e-08 -1.19088326475e-05)
(5.66903004673e-07 3.34590060203e-08 -1.15858144653e-05)
(5.83015656006e-07 2.89154931607e-08 -1.13444273024e-05)
(5.9618216327e-07 2.10607202756e-08 -1.11871172608e-05)
(6.02487098366e-07 9.23517595898e-09 -1.11076335184e-05)
(5.93263478768e-08 5.85148122641e-07 -1.45854921799e-05)
(1.67722899674e-07 5.69685563486e-07 -1.44476567189e-05)
(2.75220291808e-07 5.37268717069e-07 -1.42053933972e-05)
(3.70765646598e-07 4.89322913894e-07 -1.3874559868e-05)
(4.54156495934e-07 4.33173822458e-07 -1.34596989321e-05)
(5.24248830351e-07 3.74866755927e-07 -1.29921403109e-05)
(5.81709548191e-07 3.18290319554e-07 -1.24998830757e-05)
(6.27830576413e-07 2.66123626078e-07 -1.20060755416e-05)
(6.64671793675e-07 2.20224988277e-07 -1.15338992431e-05)
(6.95007975048e-07 1.81203302747e-07 -1.11042724662e-05)
(7.21392173773e-07 1.47908575169e-07 -1.07333571189e-05)
(7.44908462565e-07 1.17946871551e-07 -1.0431606367e-05)
(7.64614603884e-07 8.86897170583e-08 -1.02046786173e-05)
(7.79347664647e-07 5.68828913242e-08 -1.00556869794e-05)
(7.84939639308e-07 2.14098996502e-08 -9.97873612388e-06)
(7.36119126404e-08 8.55807039893e-07 -1.26073055575e-05)
(2.05738458841e-07 8.4154728296e-07 -1.24842143657e-05)
(3.36321143311e-07 7.98799970912e-07 -1.22637747973e-05)
(4.52855307264e-07 7.39644336611e-07 -1.19628766173e-05)
(5.53849093595e-07 6.68098149748e-07 -1.15923351146e-05)
(6.3901138297e-07 5.91228554045e-07 -1.11763631275e-05)
(7.09071691652e-07 5.13679081149e-07 -1.07400034603e-05)
(7.65644057819e-07 4.38737570475e-07 -1.0303517512e-05)
(8.10913724607e-07 3.68697896047e-07 -9.88694663628e-06)
(8.47668846183e-07 3.0471680376e-07 -9.50747444798e-06)
(8.78428075027e-07 2.46466658703e-07 -9.17819086136e-06)
(9.04185265159e-07 1.92459198626e-07 -8.90849187877e-06)
(9.24178733225e-07 1.40551428082e-07 -8.7046655336e-06)
(9.38113113088e-07 8.74266253285e-08 -8.57051838082e-06)
(9.4205618418e-07 3.16722512496e-08 -8.50051283812e-06)
(8.78410363886e-08 1.07823300684e-06 -9.99085293836e-06)
(2.37861085082e-07 1.06002016828e-06 -9.87228247685e-06)
(3.87274798906e-07 1.0111477289e-06 -9.6881470859e-06)
(5.19465464757e-07 9.41031478708e-07 -9.44069733076e-06)
(6.33058293283e-07 8.55917688635e-07 -9.13881806258e-06)
(7.27829735749e-07 7.62627546517e-07 -8.8020442351e-06)
(8.04756629833e-07 6.66665318628e-07 -8.44898775421e-06)
(8.65772116829e-07 5.71951939465e-07 -8.09592957501e-06)
(9.13303405691e-07 4.81345285849e-07 -7.75886099755e-06)
(9.50301751088e-07 3.96629568543e-07 -7.4510813641e-06)
(9.79611288722e-07 3.18233176264e-07 -7.18264253191e-06)
(1.002732376e-06 2.45342874078e-07 -6.96147575177e-06)
(1.01961852476e-06 1.7611446785e-07 -6.79382910642e-06)
(1.03105475176e-06 1.07279038301e-07 -6.68362136518e-06)
(1.0334572064e-06 3.79943079566e-08 -6.62552057096e-06)
(9.16908421117e-08 1.15942913789e-06 -6.57148088324e-06)
(2.47336720845e-07 1.12863351546e-06 -6.50380810266e-06)
(3.99010695674e-07 1.0771381953e-06 -6.36947584447e-06)
(5.2992914209e-07 1.00226244002e-06 -6.20205636847e-06)
(6.41419983955e-07 9.11782090223e-07 -5.99972079432e-06)
(7.31939205422e-07 8.12340561747e-07 -5.77366545489e-06)
(8.03576421904e-07 7.09334149928e-07 -5.5368012062e-06)
(8.58155003566e-07 6.07026681167e-07 -5.29957366625e-06)
(8.98310201237e-07 5.0860367201e-07 -5.07274232139e-06)
(9.27109704099e-07 4.1625785928e-07 -4.86516428824e-06)
(9.47764530619e-07 3.30877238007e-07 -4.68373261035e-06)
(9.62481550959e-07 2.52032152385e-07 -4.53417635684e-06)
(9.72152502815e-07 1.78213717676e-07 -4.42120169182e-06)
(9.78525362691e-07 1.0647175761e-07 -4.34789708815e-06)
(9.77428516025e-07 3.69852258093e-08 -4.30864551298e-06)
(6.7677877726e-08 8.36357682646e-07 -2.34560543003e-06)
(1.72204780197e-07 8.12139465466e-07 -2.31302133934e-06)
(2.7623917789e-07 7.69659427828e-07 -2.26614427225e-06)
(3.65878630347e-07 7.117948865e-07 -2.20669572157e-06)
(4.39175465469e-07 6.43147661599e-07 -2.13328928421e-06)
(4.9671511993e-07 5.68228706962e-07 -2.05169861106e-06)
(5.39176846794e-07 4.91300077517e-07 -1.96591422077e-06)
(5.68566771459e-07 4.15654523106e-07 -1.87990163544e-06)
(5.87164763176e-07 3.43783882188e-07 -1.79770010615e-06)
(5.97569724838e-07 2.77301125291e-07 -1.72269018198e-06)
(6.02553747298e-07 2.16887570059e-07 -1.65753463721e-06)
(6.0434634515e-07 1.62336960175e-07 -1.6045233138e-06)
(6.04453108489e-07 1.12670988229e-07 -1.56556942771e-06)
(6.03790476406e-07 6.62334997536e-08 -1.54200530286e-06)
(6.01876549912e-07 2.28993954328e-08 -1.52992723299e-06)
(5.80035670832e-09 -5.4851196116e-07 -1.83796789631e-05)
(1.61125315993e-08 -5.51881488618e-07 -1.82483874525e-05)
(2.42224007977e-08 -5.53044330557e-07 -1.79741164933e-05)
(2.85297879047e-08 -5.54165060904e-07 -1.75884478598e-05)
(2.75211737637e-08 -5.49971985579e-07 -1.71184588643e-05)
(2.07215169148e-08 -5.37959231144e-07 -1.659212015e-05)
(8.28540322083e-09 -5.17307605842e-07 -1.60315905395e-05)
(-9.39105371553e-09 -4.87408914838e-07 -1.54577806366e-05)
(-3.13581797099e-08 -4.47408986584e-07 -1.48985669435e-05)
(-5.56652413287e-08 -3.96892152433e-07 -1.43847476322e-05)
(-7.97095865451e-08 -3.36599897187e-07 -1.39419669797e-05)
(-1.00894140167e-07 -2.6837333562e-07 -1.35863594435e-05)
(-1.17225624006e-07 -1.94584735844e-07 -1.33245814298e-05)
(-1.27091261549e-07 -1.17698617379e-07 -1.31566918344e-05)
(-1.27809356367e-07 -3.86569688919e-08 -1.30805481575e-05)
(7.24640603434e-09 -4.5428493138e-07 -1.8201793719e-05)
(2.14368820686e-08 -4.54074956835e-07 -1.80522435325e-05)
(3.48823808287e-08 -4.59386617817e-07 -1.77751026383e-05)
(4.33251377924e-08 -4.64932541921e-07 -1.73910162006e-05)
(4.63619581009e-08 -4.65395918636e-07 -1.69195078728e-05)
(4.34936877638e-08 -4.57661005514e-07 -1.63919209383e-05)
(3.53316818263e-08 -4.40901736911e-07 -1.58306652142e-05)
(2.25531828864e-08 -4.14685442574e-07 -1.52571423754e-05)
(6.37597031964e-09 -3.78445664807e-07 -1.4700201569e-05)
(-1.10689017923e-08 -3.32315710385e-07 -1.41907201797e-05)
(-2.7186552224e-08 -2.77798675942e-07 -1.37534516402e-05)
(-3.97127374168e-08 -2.17576036639e-07 -1.3403249711e-05)
(-4.7598494956e-08 -1.54723857771e-07 -1.31458757717e-05)
(-5.06702327357e-08 -9.19440881348e-08 -1.29812486732e-05)
(-4.83087702697e-08 -2.99239282567e-08 -1.29077823439e-05)
(1.30118895035e-08 -3.17964881688e-07 -1.77974784406e-05)
(3.69485848259e-08 -3.21709030294e-07 -1.76453738806e-05)
(5.7428079753e-08 -3.30666922927e-07 -1.73824695246e-05)
(7.31769451555e-08 -3.40930719207e-07 -1.70055628058e-05)
(8.28133692172e-08 -3.47437641775e-07 -1.65394829014e-05)
(8.63948027601e-08 -3.46322428719e-07 -1.60145547405e-05)
(8.48727091622e-08 -3.36537896361e-07 -1.54562477425e-05)
(7.91720251489e-08 -3.17656794467e-07 -1.48875863686e-05)
(7.0708558485e-08 -2.89334002888e-07 -1.43374546684e-05)
(6.16036871154e-08 -2.52113381265e-07 -1.38354932351e-05)
(5.42047267892e-08 -2.07980879247e-07 -1.34050702436e-05)
(5.02679689683e-08 -1.60043993281e-07 -1.30600422012e-05)
(5.00665388896e-08 -1.11575172952e-07 -1.28059730825e-05)
(5.35876576955e-08 -6.51428117589e-08 -1.26431766519e-05)
(5.87295252199e-08 -2.08996452407e-08 -1.2567324088e-05)
(1.85528596605e-08 -1.4907584496e-07 -1.71128155622e-05)
(5.15977521908e-08 -1.51830014313e-07 -1.69786966476e-05)
(8.32621065055e-08 -1.643583021e-07 -1.67226745421e-05)
(1.10189251733e-07 -1.80081811593e-07 -1.63585986534e-05)
(1.30605660712e-07 -1.94335005581e-07 -1.59019991305e-05)
(1.44619792625e-07 -2.02650287234e-07 -1.53846014198e-05)
(1.53102393643e-07 -2.03534348816e-07 -1.48352904353e-05)
(1.57091423641e-07 -1.96330453571e-07 -1.42784956151e-05)
(1.58097960614e-07 -1.80708637944e-07 -1.37421942832e-05)
(1.58188521316e-07 -1.57324543981e-07 -1.32538248535e-05)
(1.5947991466e-07 -1.28272932577e-07 -1.28347848286e-05)
(1.63258780229e-07 -9.66909066963e-08 -1.24977807503e-05)
(1.68869211469e-07 -6.55953118496e-08 -1.22483140602e-05)
(1.75987810842e-07 -3.71916323228e-08 -1.20877881214e-05)
(1.81934725706e-07 -1.15577133046e-08 -1.20090289276e-05)
(2.60272649279e-08 4.65433075828e-08 -1.61138887391e-05)
(7.3850444396e-08 3.87464116651e-08 -1.5972235599e-05)
(1.20848082303e-07 2.36828989275e-08 -1.57218454356e-05)
(1.61550730068e-07 1.73306750705e-09 -1.53701131949e-05)
(1.94720937791e-07 -2.11192601396e-08 -1.49280912839e-05)
(2.20635971937e-07 -4.05200780097e-08 -1.44277410807e-05)
(2.40170128706e-07 -5.43974611602e-08 -1.38987469116e-05)
(2.5442842146e-07 -6.17494077448e-08 -1.33655113606e-05)
(2.64937740538e-07 -6.20643686844e-08 -1.28540377358e-05)
(2.73668724974e-07 -5.57805317762e-08 -1.23887161768e-05)
(2.82515988611e-07 -4.46976152337e-08 -1.19885089121e-05)
(2.92458027776e-07 -3.1634561199e-08 -1.16649986462e-05)
(3.02457489286e-07 -1.92252231495e-08 -1.142353505e-05)
(3.1201154703e-07 -9.12924962507e-09 -1.12666739558e-05)
(3.17515714627e-07 -2.08123212484e-09 -1.11861876799e-05)
(3.47690992423e-08 2.54538316593e-07 -1.46734065933e-05)
(9.88311787759e-08 2.4549167143e-07 -1.45358749301e-05)
(1.62482731262e-07 2.27589890422e-07 -1.42923252727e-05)
(2.17652203383e-07 1.98545562348e-07 -1.39612637297e-05)
(2.64718405787e-07 1.65737429468e-07 -1.35456578062e-05)
(3.03320158958e-07 1.33554798687e-07 -1.30772626756e-05)
(3.34371205237e-07 1.04576691598e-07 -1.25838683679e-05)
(3.58927870606e-07 8.02904141509e-08 -1.20886017762e-05)
(3.78458884458e-07 6.15739627845e-08 -1.16149885192e-05)
(3.94861071773e-07 4.84631178993e-08 -1.11839647042e-05)
(4.09875238899e-07 3.97402093955e-08 -1.08117167504e-05)
(4.24161386907e-07 3.3173982064e-08 -1.05089591667e-05)
(4.36549723174e-07 2.64817856609e-08 -1.02814161951e-05)
(4.47064927217e-07 1.83056963113e-08 -1.01325662486e-05)
(4.50940637087e-07 7.17391577968e-09 -1.00545952737e-05)
(4.50768676653e-08 4.62328111424e-07 -1.26920661204e-05)
(1.26460143881e-07 4.5388252135e-07 -1.25685220357e-05)
(2.05581452084e-07 4.28308551508e-07 -1.23476552372e-05)
(2.75722813619e-07 3.91501980771e-07 -1.20465871275e-05)
(3.356695918e-07 3.476640075e-07 -1.16753650926e-05)
(3.856040209e-07 3.0191682339e-07 -1.12584122292e-05)
(4.2636541449e-07 2.57227495525e-07 -1.08206244256e-05)
(4.59099069516e-07 2.15538480706e-07 -1.03823225259e-05)
(4.8523135309e-07 1.78157620432e-07 -9.96386029944e-06)
(5.06664652317e-07 1.45684713142e-07 -9.58236211708e-06)
(5.25208493626e-07 1.175477589e-07 -9.25093905888e-06)
(5.41425705929e-07 9.21253772049e-08 -8.97933780246e-06)
(5.54067904964e-07 6.7441554143e-08 -8.77414017758e-06)
(5.64008007684e-07 4.22560036015e-08 -8.63985200314e-06)
(5.65708366878e-07 1.50593501015e-08 -8.56954422618e-06)
(5.40486131354e-08 6.25868239895e-07 -1.00630663824e-05)
(1.46965742777e-07 6.18925851078e-07 -9.94250340784e-06)
(2.39434482877e-07 5.88101958755e-07 -9.75931997259e-06)
(3.20766112016e-07 5.44690969047e-07 -9.51155953211e-06)
(3.89998327011e-07 4.91775467104e-07 -9.20876172461e-06)
(4.4737564091e-07 4.34541929706e-07 -8.87075927639e-06)
(4.93541877274e-07 3.76549926038e-07 -8.5159712069e-06)
(5.29876182865e-07 3.20212091759e-07 -8.1607949428e-06)
(5.57920391617e-07 2.6734532668e-07 -7.8214396589e-06)
(5.79743487701e-07 2.1909485279e-07 -7.51114639927e-06)
(5.97483510665e-07 1.75412182583e-07 -7.24012492085e-06)
(6.12006313297e-07 1.35077599205e-07 -7.01676198024e-06)
(6.22318130508e-07 9.63631843703e-08 -6.84772243486e-06)
(6.30426307462e-07 5.84272773107e-08 -6.73766899227e-06)
(6.30792030029e-07 2.01760468526e-08 -6.68028223986e-06)
(5.68126263641e-08 6.89226496059e-07 -6.61107554416e-06)
(1.54556764295e-07 6.70177320339e-07 -6.54161024814e-06)
(2.4762558312e-07 6.38897591886e-07 -6.407066579e-06)
(3.27534522397e-07 5.92787168922e-07 -6.23876851123e-06)
(3.95058596386e-07 5.37037463979e-07 -6.0355510924e-06)
(4.49058328122e-07 4.76146671327e-07 -5.80829167371e-06)
(4.91333937785e-07 4.13537178441e-07 -5.56981737148e-06)
(5.23001987573e-07 3.51859884744e-07 -5.33066565526e-06)
(5.45725914929e-07 2.9317829426e-07 -5.10169288975e-06)
(5.61641361195e-07 2.38956132297e-07 -4.8917014541e-06)
(5.73103250318e-07 1.89472035681e-07 -4.70784308353e-06)
(5.81362221506e-07 1.43832937134e-07 -4.55627620292e-06)
(5.86022857776e-07 1.00886397582e-07 -4.44203449209e-06)
(5.90603431548e-07 6.01662754801e-08 -4.36866422621e-06)
(5.87178457425e-07 2.04825453345e-08 -4.32882363843e-06)
(3.79769900123e-08 4.69295019842e-07 -2.31660410717e-06)
(9.73263618105e-08 4.53261968102e-07 -2.28385965847e-06)
(1.56062666415e-07 4.28385380775e-07 -2.23665599115e-06)
(2.06125946156e-07 3.94046369597e-07 -2.1770996065e-06)
(2.46294030602e-07 3.53769791419e-07 -2.10370548818e-06)
(2.77129500458e-07 3.10267683253e-07 -2.02197945276e-06)
(2.99029061074e-07 2.66111609573e-07 -1.93589055377e-06)
(3.13288826304e-07 2.2321207339e-07 -1.84941099117e-06)
(3.21304225394e-07 1.83053299877e-07 -1.76656442253e-06)
(3.24794227953e-07 1.46581123106e-07 -1.69068135972e-06)
(3.25601717255e-07 1.13974490482e-07 -1.62457729959e-06)
(3.24911211083e-07 8.47632923496e-08 -1.57069478665e-06)
(3.23265453085e-07 5.83366377284e-08 -1.53103167832e-06)
(3.21698173187e-07 3.45063769034e-08 -1.50695336732e-06)
(3.18457515804e-07 1.17766552839e-08 -1.493499794e-06)
(-9.1996103487e-09 -7.0799453256e-07 -1.85012034455e-05)
(-2.93361846536e-08 -7.08958919883e-07 -1.8365979716e-05)
(-5.07446339434e-08 -7.00580747616e-07 -1.8093522819e-05)
(-7.28198694519e-08 -6.89085780623e-07 -1.77064436773e-05)
(-9.78396414747e-08 -6.70805382598e-07 -1.72345193698e-05)
(-1.25867045124e-07 -6.43959166852e-07 -1.6706442251e-05)
(-1.56239834266e-07 -6.08366934271e-07 -1.6144506619e-05)
(-1.88201250413e-07 -5.6406900586e-07 -1.55696308494e-05)
(-2.20775246016e-07 -5.10899557724e-07 -1.50099472002e-05)
(-2.52570950629e-07 -4.48794520877e-07 -1.44961404604e-05)
(-2.81900148414e-07 -3.78329045707e-07 -1.40536175913e-05)
(-3.0695177861e-07 -3.00861396242e-07 -1.36984290297e-05)
(-3.26306107345e-07 -2.18220777856e-07 -1.3437232209e-05)
(-3.39192045956e-07 -1.32691407453e-07 -1.32699906651e-05)
(-3.41440213381e-07 -4.38766188682e-08 -1.31932816396e-05)
(-8.73639859757e-09 -6.11728971525e-07 -1.83115632388e-05)
(-2.55470584504e-08 -6.09278592179e-07 -1.81710536625e-05)
(-4.09901914261e-08 -6.03365148529e-07 -1.78935024538e-05)
(-5.89375795941e-08 -5.95658575847e-07 -1.75079580196e-05)
(-7.98888880862e-08 -5.81382244572e-07 -1.70342612334e-05)
(-1.03751168033e-07 -5.58331727608e-07 -1.65046692145e-05)
(-1.29512538132e-07 -5.26314702706e-07 -1.59418105759e-05)
(-1.56180786208e-07 -4.85586756832e-07 -1.53671585497e-05)
(-1.82541671824e-07 -4.36307748649e-07 -1.4809739221e-05)
(-2.07041241828e-07 -3.78957881363e-07 -1.43001689927e-05)
(-2.27976278822e-07 -3.14846931215e-07 -1.38630177431e-05)
(-2.43789471199e-07 -2.46196629719e-07 -1.35131661375e-05)
(-2.53953582371e-07 -1.75600679826e-07 -1.32563280524e-05)
(-2.59535795024e-07 -1.05248626537e-07 -1.30920888508e-05)
(-2.59246141852e-07 -3.4679283231e-08 -1.30159198258e-05)
(-4.53322577337e-09 -4.98563913852e-07 -1.79224284821e-05)
(-1.29096573553e-08 -4.96458678535e-07 -1.77671369089e-05)
(-2.26443627563e-08 -4.93649507058e-07 -1.75019563549e-05)
(-3.52609917058e-08 -4.8964319494e-07 -1.71233168043e-05)
(-5.12196022509e-08 -4.80057917342e-07 -1.6654339598e-05)
(-7.01038708268e-08 -4.62077868027e-07 -1.6126796225e-05)
(-9.04879767534e-08 -4.35385626081e-07 -1.55663280839e-05)
(-1.11156722237e-07 -4.00312971045e-07 -1.49961248524e-05)
(-1.30767149406e-07 -3.57290977107e-07 -1.44452261627e-05)
(-1.47836357537e-07 -3.07233232347e-07 -1.39429954318e-05)
(-1.60911944883e-07 -2.51937549968e-07 -1.35126865307e-05)
(-1.68910255365e-07 -1.94072528475e-07 -1.31682011759e-05)
(-1.7209306892e-07 -1.36454776894e-07 -1.29147743029e-05)
(-1.71715046623e-07 -8.07681131438e-08 -1.27519272917e-05)
(-1.68783102137e-07 -2.64213421596e-08 -1.26732442988e-05)
(-1.94693726418e-10 -3.64358170406e-07 -1.72345980537e-05)
(-2.25453140397e-09 -3.61487746535e-07 -1.70979437134e-05)
(-4.75414996246e-09 -3.62373083653e-07 -1.68409448593e-05)
(-9.52234392258e-09 -3.62592430547e-07 -1.64754193646e-05)
(-1.78318650335e-08 -3.58928928251e-07 -1.60166889543e-05)
(-2.90060658418e-08 -3.48034944087e-07 -1.54973582234e-05)
(-4.16580629363e-08 -3.29331041387e-07 -1.49462808169e-05)
(-5.45458973132e-08 -3.03033892597e-07 -1.43880836167e-05)
(-6.63767418587e-08 -2.69664288767e-07 -1.38509194696e-05)
(-7.58393062656e-08 -2.30307743442e-07 -1.33620043663e-05)
(-8.17448846919e-08 -1.86933236237e-07 -1.29427583473e-05)
(-8.34351396015e-08 -1.42286858438e-07 -1.26060134632e-05)
(-8.21223685201e-08 -9.88735755184e-08 -1.23568035143e-05)
(-7.93037507751e-08 -5.77251203246e-08 -1.21954728152e-05)
(-7.5724410279e-08 -1.86622392123e-08 -1.21146421766e-05)
(4.91761262818e-09 -2.16997402477e-07 -1.62352828565e-05)
(1.28700172552e-08 -2.18781768195e-07 -1.60930622114e-05)
(2.08245034986e-08 -2.21753662105e-07 -1.58430181516e-05)
(2.58316665885e-08 -2.26447229696e-07 -1.5490180578e-05)
(2.66192696022e-08 -2.28860505476e-07 -1.50468189137e-05)
(2.42391401793e-08 -2.25808382819e-07 -1.45449880931e-05)
(1.99941723086e-08 -2.16414674366e-07 -1.40143218343e-05)
(1.50480592619e-08 -2.00720295843e-07 -1.34794472639e-05)
(1.05525873505e-08 -1.79130296725e-07 -1.29665853399e-05)
(7.64885152049e-09 -1.52562921969e-07 -1.24999822503e-05)
(7.34038771407e-09 -1.22783447685e-07 -1.20987715056e-05)
(1.01006753204e-08 -9.23283360759e-08 -1.17747517099e-05)
(1.43802543581e-08 -6.330247193e-08 -1.153276329e-05)
(1.86656910434e-08 -3.60314154516e-08 -1.13743107004e-05)
(2.23187469231e-08 -1.12801268988e-08 -1.1292928421e-05)
(1.04491201428e-08 -6.52042783358e-08 -1.47960375041e-05)
(2.92485058972e-08 -6.8699814814e-08 -1.46581011263e-05)
(4.88363646312e-08 -7.20571803519e-08 -1.44146047773e-05)
(6.38794449519e-08 -8.10379614674e-08 -1.40829579614e-05)
(7.47734314526e-08 -8.97109054065e-08 -1.36667070702e-05)
(8.20141617621e-08 -9.51998883396e-08 -1.31973821836e-05)
(8.67647466537e-08 -9.63410005914e-08 -1.27026527789e-05)
(8.99384833535e-08 -9.28794123965e-08 -1.22058253593e-05)
(9.24654071816e-08 -8.48845151567e-08 -1.17306084737e-05)
(9.53794355644e-08 -7.28225442037e-08 -1.12978423644e-05)
(9.9620232356e-08 -5.79959132504e-08 -1.09240264848e-05)
(1.054682967e-07 -4.25171374362e-08 -1.06201637329e-05)
(1.1123916559e-07 -2.81844796274e-08 -1.03915289673e-05)
(1.16172267326e-07 -1.49082877745e-08 -1.02407033163e-05)
(1.1944527995e-07 -4.14250629559e-09 -1.01628121558e-05)
(1.75578136043e-08 8.88593244322e-08 -1.28112723046e-05)
(4.8777557059e-08 8.43387222183e-08 -1.26882961295e-05)
(7.8468221672e-08 7.64831782791e-08 -1.24667455804e-05)
(1.03971124318e-07 6.26505445225e-08 -1.21656592772e-05)
(1.24529306918e-07 4.69386946308e-08 -1.17939887737e-05)
(1.40743813948e-07 3.24460412847e-08 -1.13763157831e-05)
(1.53590052964e-07 2.04362830291e-08 -1.09373694628e-05)
(1.63814572566e-07 1.14346842752e-08 -1.04976488504e-05)
(1.72126018152e-07 5.72342605416e-09 -1.00776032825e-05)
(1.79530200392e-07 3.33179280838e-09 -9.69429162199e-06)
(1.87085838613e-07 3.40821622805e-09 -9.36127675926e-06)
(1.94950675668e-07 4.23842139699e-09 -9.0886090848e-06)
(2.01098759483e-07 4.28993574301e-09 -8.88252331767e-06)
(2.05783967397e-07 3.95763797648e-09 -8.74671566146e-06)
(2.08045943222e-07 1.99699209176e-09 -8.67737209917e-06)
(2.30546507453e-08 2.12061765355e-07 -1.01721774166e-05)
(6.21571830455e-08 2.12912718318e-07 -1.00517694474e-05)
(1.0198425009e-07 2.00389873055e-07 -9.86849962819e-06)
(1.36469378496e-07 1.82854527518e-07 -9.62066772195e-06)
(1.65140564629e-07 1.61209460248e-07 -9.31730374224e-06)
(1.88629277904e-07 1.3877914905e-07 -8.97838813729e-06)
(2.07355590775e-07 1.17175852363e-07 -8.62235784061e-06)
(2.22120158079e-07 9.7256418936e-08 -8.2657526329e-06)
(2.33586340852e-07 7.97354361526e-08 -7.92480494373e-06)
(2.42897382311e-07 6.50734262748e-08 -7.61273769564e-06)
(2.51400315387e-07 5.27235981277e-08 -7.34028571183e-06)
(2.59347384627e-07 4.12081643731e-08 -7.11607982801e-06)
(2.64445230541e-07 2.92968325202e-08 -6.94665258859e-06)
(2.68321636364e-07 1.81928155457e-08 -6.83575765063e-06)
(2.70607222467e-07 6.6132635201e-09 -6.77914763254e-06)
(2.69399659832e-08 2.86980064256e-07 -6.69701452373e-06)
(7.38312859745e-08 2.78605142258e-07 -6.62531765023e-06)
(1.17050073291e-07 2.65812299424e-07 -6.49080731325e-06)
(1.53869866335e-07 2.45994678564e-07 -6.3218508628e-06)
(1.84846496451e-07 2.21727363811e-07 -6.11785839387e-06)
(2.09249839942e-07 1.95517446201e-07 -5.88965645078e-06)
(2.28474127594e-07 1.68907918889e-07 -5.64994432933e-06)
(2.4295631518e-07 1.43004059497e-07 -5.40938747368e-06)
(2.53375299543e-07 1.18783093416e-07 -5.1788319907e-06)
(2.60904897801e-07 9.69918716306e-08 -4.96711750506e-06)
(2.66983187114e-07 7.73569548806e-08 -4.78184894117e-06)
(2.71975607693e-07 5.87486786817e-08 -4.629330459e-06)
(2.73701273166e-07 4.07856853526e-08 -4.51462389614e-06)
(2.76929410832e-07 2.50591268161e-08 -4.43977396448e-06)
(2.76958304946e-07 9.02313092943e-09 -4.3988301523e-06)
(1.82313084675e-08 2.16921437782e-07 -2.34979407927e-06)
(4.67286337417e-08 2.07767063034e-07 -2.31681605831e-06)
(7.51914032167e-08 1.96534030781e-07 -2.26898947022e-06)
(9.94842936458e-08 1.80157210761e-07 -2.20888206173e-06)
(1.18779072723e-07 1.61115279304e-07 -2.1350067622e-06)
(1.33613523766e-07 1.40742345768e-07 -2.05258994177e-06)
(1.44123263345e-07 1.20261235697e-07 -1.96565921931e-06)
(1.50955567591e-07 1.00508990365e-07 -1.87821832073e-06)
(1.5471932964e-07 8.22131983614e-08 -1.79429159772e-06)
(1.56358360528e-07 6.58409723224e-08 -1.71724363912e-06)
(1.56923194316e-07 5.12596726023e-08 -1.65011492349e-06)
(1.56792232298e-07 3.79656486686e-08 -1.59536051785e-06)
(1.55541487864e-07 2.60117129041e-08 -1.55494741075e-06)
(1.55293143132e-07 1.59996765172e-08 -1.5287986252e-06)
(1.53709609555e-07 5.80061124963e-09 -1.51522003635e-06)
(-2.49520928654e-08 -9.03181043813e-07 -1.86711675408e-05)
(-7.63166842465e-08 -8.95566424958e-07 -1.85283307125e-05)
(-1.28020839123e-07 -8.77041417167e-07 -1.82569223426e-05)
(-1.77606894234e-07 -8.51690335717e-07 -1.78687340557e-05)
(-2.27530056434e-07 -8.18134653008e-07 -1.73945451739e-05)
(-2.77537908919e-07 -7.75254056772e-07 -1.68644547188e-05)
(-3.26698455418e-07 -7.23389478413e-07 -1.63008411624e-05)
(-3.74197046445e-07 -6.63155962945e-07 -1.57246350002e-05)
(-4.19174013129e-07 -5.94980193708e-07 -1.51641350993e-05)
(-4.60714098912e-07 -5.19049030944e-07 -1.46498157139e-05)
(-4.97763691293e-07 -4.35701721416e-07 -1.42069987216e-05)
(-5.28888547767e-07 -3.45799365809e-07 -1.3851932164e-05)
(-5.5261038486e-07 -2.50601552051e-07 -1.35912891997e-05)
(-5.68714338134e-07 -1.52104326979e-07 -1.34246514779e-05)
(-5.74282282048e-07 -5.01694234993e-08 -1.33467733621e-05)
(-2.48917114789e-08 -7.94442878284e-07 -1.84621899028e-05)
(-7.39319616598e-08 -7.86767828992e-07 -1.83303341581e-05)
(-1.19913977896e-07 -7.69628386555e-07 -1.80536476252e-05)
(-1.65284880087e-07 -7.48034196691e-07 -1.76667516014e-05)
(-2.10989892483e-07 -7.18536590385e-07 -1.71908567135e-05)
(-2.56398826584e-07 -6.7966559145e-07 -1.66591889714e-05)
(-3.0033680012e-07 -6.31780562628e-07 -1.6094549838e-05)
(-3.41787051577e-07 -5.75700366416e-07 -1.55186352911e-05)
(-3.79712203069e-07 -5.12139828606e-07 -1.49606569479e-05)
(-4.13118652553e-07 -4.4178562212e-07 -1.4450908487e-05)
(-4.40975830148e-07 -3.65704094312e-07 -1.40139173143e-05)
(-4.62124472167e-07 -2.85680172763e-07 -1.36647933846e-05)
(-4.75995459938e-07 -2.03833962223e-07 -1.34089403609e-05)
(-4.84396288476e-07 -1.22029546043e-07 -1.32450715754e-05)
(-4.8740079819e-07 -4.01115508335e-08 -1.31673474606e-05)
(-2.2428823877e-08 -6.99007689217e-07 -1.80825581287e-05)
(-6.44506637527e-08 -6.90147635598e-07 -1.79288388926e-05)
(-1.05440123075e-07 -6.7490910385e-07 -1.76618803408e-05)
(-1.47007648447e-07 -6.5571659148e-07 -1.72820147869e-05)
(-1.88971852582e-07 -6.29285942123e-07 -1.68105723432e-05)
(-2.3050362807e-07 -5.93781819941e-07 -1.62807233395e-05)
(-2.69946180772e-07 -5.49565752962e-07 -1.57182740292e-05)
(-3.06029194965e-07 -4.97601994487e-07 -1.51467684874e-05)
(-3.37634730296e-07 -4.38917269521e-07 -1.4595333962e-05)
(-3.63913720537e-07 -3.74637697636e-07 -1.4092908711e-05)
(-3.84126866777e-07 -3.06313629213e-07 -1.36627306091e-05)
(-3.97620624788e-07 -2.36152036531e-07 -1.33189312995e-05)
(-4.04642853005e-07 -1.66443150177e-07 -1.30662279922e-05)
(-4.07295556609e-07 -9.87132039022e-08 -1.2902916143e-05)
(-4.07430014019e-07 -3.23304579926e-08 -1.28233804433e-05)
(-1.93358097519e-08 -5.98252913699e-07 -1.73959305139e-05)
(-5.73888137368e-08 -5.87963456028e-07 -1.7257463122e-05)
(-9.45377875955e-08 -5.75745385285e-07 -1.70000946454e-05)
(-1.31287624365e-07 -5.59113938614e-07 -1.66334329359e-05)
(-1.68338069697e-07 -5.36269501086e-07 -1.6172999652e-05)
(-2.04505897775e-07 -5.05097512091e-07 -1.56520976556e-05)
(-2.381034885e-07 -4.65921169726e-07 -1.50995219659e-05)
(-2.67877755016e-07 -4.19745126948e-07 -1.45402313835e-05)
(-2.92880831796e-07 -3.67775781592e-07 -1.40024105005e-05)
(-3.12552522174e-07 -3.11366233283e-07 -1.35128985851e-05)
(-3.26482458583e-07 -2.52284264265e-07 -1.30932581356e-05)
(-3.3445564987e-07 -1.92801026461e-07 -1.27565836535e-05)
(-3.3768004496e-07 -1.34775863734e-07 -1.2507263533e-05)