/*--------------------------------*- C++ -*----------------------------------*\
| =========                 |                                                 |
| \\      /  F ield         | foam-extend: Open Source CFD                    |
|  \\    /   O peration     | Version:     4.1                                |
|   \\  /    A nd           | Web:         http://www.foam-extend.org         |
|    \\/     M anipulation  |                                                 |
\*---------------------------------------------------------------------------*/
FoamFile
{
    version     2.0;
    format      ascii;
    class       vectorField;
    location    "1";
    object      solidsCellD_iteration11;
}
// * * * * * * * * * * * * * * * * * * * * * * * * * * * * * * * * * * * * * //


1050
(
(1.7566121064e-07 1.03745202348e-06 -4.02265849918e-05)
(4.88082856017e-07 1.00329066341e-06 -3.98862023714e-05)
(7.94624552724e-07 9.40964124348e-07 -3.92466858353e-05)
(1.08033151449e-06 8.53466927926e-07 -3.83534429293e-05)
(1.34370203831e-06 7.46597612393e-07 -3.72525776315e-05)
(1.57831633672e-06 6.27510417996e-07 -3.59880516283e-05)
(1.77610165197e-06 5.05184299205e-07 -3.46143471296e-05)
(1.93126788791e-06 3.90351806211e-07 -3.3205169891e-05)
(2.04556465529e-06 2.91997780154e-07 -3.18427995336e-05)
(2.12730565225e-06 2.14363707556e-07 -3.05987660923e-05)
(2.18665635833e-06 1.56994015373e-07 -2.95244868709e-05)
(2.23187591468e-06 1.15395146397e-07 -2.86530672114e-05)
(2.26730603162e-06 8.27747158198e-08 -2.80026990908e-05)
(2.29397089756e-06 5.15004543363e-08 -2.75787530864e-05)
(2.30653355813e-06 1.72505508996e-08 -2.73721786592e-05)
(1.84788083018e-07 1.25457400522e-06 -3.9396510346e-05)
(5.13424517494e-07 1.21216376022e-06 -3.9072756858e-05)
(8.37904922661e-07 1.13794483192e-06 -3.84199864285e-05)
(1.13682730814e-06 1.03456660586e-06 -3.75205570583e-05)
(1.41006945619e-06 9.1033313001e-07 -3.64156355234e-05)
(1.65107500591e-06 7.74814262053e-07 -3.51489775791e-05)
(1.85272455207e-06 6.38801060659e-07 -3.37763667202e-05)
(2.01103261124e-06 5.14091251957e-07 -3.23756435833e-05)
(2.1300760666e-06 4.08863552863e-07 -3.1030459139e-05)
(2.21987955703e-06 3.2510181173e-07 -2.98094578439e-05)
(2.29112076888e-06 2.59571511784e-07 -2.87590702634e-05)
(2.35117994961e-06 2.05249035166e-07 -2.79081797361e-05)
(2.40201539634e-06 1.53748416493e-07 -2.72724599456e-05)
(2.44190151443e-06 9.7551767603e-08 -2.68564758237e-05)
(2.46218597579e-06 3.45223481135e-08 -2.66534374637e-05)
(2.05704989905e-07 1.61639301501e-06 -3.81894994751e-05)
(5.64179825073e-07 1.57528038799e-06 -3.78203745318e-05)
(9.17365944899e-07 1.48751262594e-06 -3.71624185668e-05)
(1.24198702674e-06 1.36452190715e-06 -3.62572695667e-05)
(1.53578920855e-06 1.21706618653e-06 -3.5150259354e-05)
(1.79249099575e-06 1.0568168603e-06 -3.38852559301e-05)
(2.00577916151e-06 8.9630213463e-07 -3.25223953236e-05)
(2.17396626976e-06 7.48284629985e-07 -3.1141951292e-05)
(2.30355121543e-06 6.20279895409e-07 -2.98253989296e-05)
(2.40570321386e-06 5.12467204898e-07 -2.86361575277e-05)
(2.49067943784e-06 4.19859541471e-07 -2.76150168441e-05)
(2.5644593876e-06 3.34533218114e-07 -2.67869459963e-05)
(2.62711733015e-06 2.48442687191e-07 -2.6165313402e-05)
(2.67653940132e-06 1.55049277755e-07 -2.57542249154e-05)
(2.70116181573e-06 5.4556082128e-08 -2.55479693528e-05)
(2.30143929025e-07 2.15111529324e-06 -3.63697180649e-05)
(6.27424128209e-07 2.10052735237e-06 -3.60208457936e-05)
(1.02338524991e-06 1.99372351718e-06 -3.53659534368e-05)
(1.3835588823e-06 1.84231873554e-06 -3.44739816767e-05)
(1.70733591133e-06 1.66001552422e-06 -3.3383946653e-05)
(1.98764277055e-06 1.46130394884e-06 -3.21409880194e-05)
(2.21954855492e-06 1.26109824125e-06 -3.08083745911e-05)
(2.40376025961e-06 1.07338899988e-06 -2.94665898673e-05)
(2.54872184305e-06 9.05429574854e-07 -2.81932423289e-05)
(2.66608656006e-06 7.56416654094e-07 -2.70460381047e-05)
(2.76535924251e-06 6.20735126237e-07 -2.6060447807e-05)
(2.85140559228e-06 4.90744391291e-07 -2.52582054866e-05)
(2.9230134238e-06 3.5938620439e-07 -2.46513665881e-05)
(2.97843388579e-06 2.20910589124e-07 -2.42438202596e-05)
(3.00646622042e-06 7.70470632899e-08 -2.40309406022e-05)
(2.64842315417e-07 2.79340870155e-06 -3.38688556587e-05)
(7.13788703486e-07 2.73328341496e-06 -3.35091498317e-05)
(1.16244946632e-06 2.60369683729e-06 -3.28618860072e-05)
(1.5670130494e-06 2.41811611703e-06 -3.19950860848e-05)
(1.92729613416e-06 2.19336970564e-06 -3.09420574776e-05)
(2.23598841993e-06 1.94682846744e-06 -2.97470684397e-05)
(2.48990684543e-06 1.69587459317e-06 -2.84737428026e-05)
(2.69205726613e-06 1.45575669293e-06 -2.71993384552e-05)
(2.85230925949e-06 1.23413366043e-06 -2.59947367468e-05)
(2.98235954654e-06 1.03050697467e-06 -2.49105993366e-05)
(3.09104226211e-06 8.39978067708e-07 -2.39771005605e-05)
(3.18290877066e-06 6.56301632882e-07 -2.32131747881e-05)
(3.25688467995e-06 4.7385116436e-07 -2.26313305801e-05)
(3.31254969991e-06 2.87630438455e-07 -2.22362522275e-05)
(3.33987402757e-06 9.96919154196e-08 -2.20232069213e-05)
(3.04586749482e-07 3.49381059078e-06 -3.0413806566e-05)
(8.11493589897e-07 3.42202974556e-06 -3.0071558927e-05)
(1.3187423152e-06 3.26138209262e-06 -2.94525469731e-05)
(1.77094978796e-06 3.03536503827e-06 -2.86423362114e-05)
(2.1693349481e-06 2.76089848193e-06 -2.76650070186e-05)
(2.506351933e-06 2.45917190767e-06 -2.65615111002e-05)
(2.78090751561e-06 2.1495399877e-06 -2.53919984176e-05)
(2.9980453101e-06 1.84859798944e-06 -2.42265791402e-05)
(3.16868554207e-06 1.56510468062e-06 -2.31267704861e-05)
(3.30451586805e-06 1.30007889384e-06 -2.21355333555e-05)
(3.4142397337e-06 1.05030396589e-06 -2.12786965991e-05)
(3.50305042047e-06 8.11217958967e-07 -2.05725271451e-05)
(3.57127187475e-06 5.78522667308e-07 -2.00292895216e-05)
(3.62073987681e-06 3.47455390319e-07 -1.96551824085e-05)
(3.64352900858e-06 1.1986103759e-07 -1.94459329275e-05)
(3.45465995782e-07 4.13100990554e-06 -2.58341529196e-05)
(9.03986279819e-07 4.04330605074e-06 -2.54968322682e-05)
(1.46268355531e-06 3.85253612427e-06 -2.4950373664e-05)
(1.95633695386e-06 3.58453312526e-06 -2.42349588035e-05)
(2.3843376438e-06 3.26127364003e-06 -2.33807873608e-05)
(2.74086092706e-06 2.90556703281e-06 -2.24202249274e-05)
(3.02665850821e-06 2.53897451277e-06 -2.14068875556e-05)
(3.24873941745e-06 2.17928134718e-06 -2.04003287814e-05)
(3.41885308883e-06 1.83678699958e-06 -1.94503611852e-05)
(3.54890099587e-06 1.51485445765e-06 -1.85914116213e-05)
(3.64828647004e-06 1.2125375918e-06 -1.78461192061e-05)
(3.72383751136e-06 9.26690808392e-07 -1.72293360704e-05)
(3.77797004298e-06 6.53798010242e-07 -1.67516557345e-05)
(3.81506310157e-06 3.88880753694e-07 -1.64188921887e-05)
(3.82967590519e-06 1.33643982351e-07 -1.62264009267e-05)
(3.70315429798e-07 4.51381044099e-06 -1.99204672981e-05)
(9.5381909e-07 4.40736768494e-06 -1.96556561072e-05)
(1.53758330521e-06 4.19043526193e-06 -1.91904843263e-05)
(2.04437660013e-06 3.89143944785e-06 -1.86218734903e-05)
(2.47688682813e-06 3.5328659558e-06 -1.79436833734e-05)
(2.8294785075e-06 3.14024271395e-06 -1.71878406628e-05)
(3.10540604763e-06 2.73570512402e-06 -1.6394924098e-05)
(3.31324267491e-06 2.3376879571e-06 -1.56100998621e-05)
(3.46533426868e-06 1.95773246929e-06 -1.48690276577e-05)
(3.57395057265e-06 1.60140125852e-06 -1.41961215248e-05)
(3.64982394932e-06 1.26987023021e-06 -1.36101655522e-05)
(3.70189767204e-06 9.60882285833e-07 -1.31247944316e-05)
(3.73463437856e-06 6.71160479865e-07 -1.27480889857e-05)
(3.75399486856e-06 3.95428871421e-07 -1.24831787141e-05)
(3.75767614322e-06 1.3548287972e-07 -1.23235467059e-05)
(3.48196058307e-07 4.19592099899e-06 -1.26927052186e-05)
(8.76183544646e-07 4.08501576843e-06 -1.24852259468e-05)
(1.4024551368e-06 3.86920822174e-06 -1.21957977704e-05)
(1.85443031577e-06 3.57984809969e-06 -1.18216834214e-05)
(2.23077155403e-06 3.23694060306e-06 -1.13859584239e-05)
(2.52950690198e-06 2.86412550297e-06 -1.08998835923e-05)
(2.75516518714e-06 2.48195598984e-06 -1.03920706893e-05)
(2.91689916034e-06 2.10727039553e-06 -9.89116869546e-06)
(3.02660371193e-06 1.75105814429e-06 -9.41842332964e-06)
(3.09603079585e-06 1.419488015e-06 -8.98768280322e-06)
(3.13630861784e-06 1.11470728482e-06 -8.61138001925e-06)
(3.15724287835e-06 8.34866141426e-07 -8.29929221605e-06)
(3.16409500536e-06 5.77451960476e-07 -8.0556789777e-06)
(3.16324229064e-06 3.37142229303e-07 -7.88200574642e-06)
(3.15542978137e-06 1.15485467077e-07 -7.77100548263e-06)
(2.16680453442e-07 2.59721031793e-06 -4.57326236192e-06)
(5.37317508812e-07 2.50912525711e-06 -4.50080972131e-06)
(8.53065462608e-07 2.36147290262e-06 -4.3861009167e-06)
(1.11853428899e-06 2.16786756694e-06 -4.25364032766e-06)
(1.33202807093e-06 1.94292449971e-06 -4.09655575796e-06)
(1.49295821832e-06 1.70168176551e-06 -3.92307743767e-06)
(1.60566457497e-06 1.45771606008e-06 -3.74265495955e-06)
(1.67746370141e-06 1.22195782004e-06 -3.56568831667e-06)
(1.71691329219e-06 1.00149181231e-06 -3.39922975637e-06)
(1.73243118635e-06 8.00195424581e-07 -3.24752120648e-06)
(1.73217075916e-06 6.19323474859e-07 -3.11514057788e-06)
(1.72328885261e-06 4.57362381133e-07 -3.00577274659e-06)
(1.70986374515e-06 3.12579146378e-07 -2.91972024801e-06)
(1.69539899814e-06 1.80994351184e-07 -2.85840235298e-06)
(1.68533996472e-06 6.22790878315e-08 -2.81583003466e-06)
(1.0724443855e-07 4.07444163586e-07 -4.03926281711e-05)
(3.02044655784e-07 3.95369128724e-07 -4.00439483402e-05)
(4.91700348129e-07 3.6682218554e-07 -3.94054031603e-05)
(6.69464130805e-07 3.25421189225e-07 -3.8515027746e-05)
(8.33875104184e-07 2.74262251745e-07 -3.74175866291e-05)
(9.80541380003e-07 2.18190062355e-07 -3.61553208178e-05)
(1.10430876944e-06 1.62355699121e-07 -3.47817962554e-05)
(1.20222955227e-06 1.12563396899e-07 -3.33717320777e-05)
(1.27636729041e-06 7.33536295812e-08 -3.20084934972e-05)
(1.33253982156e-06 4.64683615492e-08 -3.07638646217e-05)
(1.37721426161e-06 3.1019776951e-08 -2.96888599589e-05)
(1.41516203072e-06 2.35586149928e-08 -2.88166065033e-05)
(1.44780555083e-06 1.93613485834e-08 -2.81658821322e-05)
(1.47508450933e-06 1.31585086157e-08 -2.77427458248e-05)
(1.49482447245e-06 4.70387513159e-09 -2.75361794804e-05)
(1.12569821926e-07 5.51545981744e-07 -3.9549002081e-05)
(3.17312342037e-07 5.3319709276e-07 -3.92266777942e-05)
(5.18886941546e-07 4.99169017789e-07 -3.85760976021e-05)
(7.05352003293e-07 4.48621962273e-07 -3.76778100377e-05)
(8.76418775643e-07 3.87565232046e-07 -3.65730662791e-05)
(1.0275097046e-06 3.22222692889e-07 -3.53043815355e-05)
(1.15423020134e-06 2.58720576743e-07 -3.39276213945e-05)
(1.2548701843e-06 2.03301889352e-07 -3.25219270749e-05)
(1.33280210741e-06 1.59857923281e-07 -3.11721512112e-05)
(1.39464336803e-06 1.28671692394e-07 -2.99473888796e-05)
(1.44697556776e-06 1.07047256244e-07 -2.88938312147e-05)
(1.49393690979e-06 8.99306696319e-08 -2.80406332466e-05)
(1.53527080118e-06 7.15192846179e-08 -2.74036322722e-05)
(1.56968456116e-06 4.72409549459e-08 -2.69875266287e-05)
(1.59262682894e-06 1.7210028334e-08 -2.67836239838e-05)
(1.24944942046e-07 7.92035405703e-07 -3.83687180863e-05)
(3.48485064151e-07 7.77010353592e-07 -3.800142746e-05)
(5.67714068626e-07 7.33355585979e-07 -3.73443960593e-05)
(7.69392428438e-07 6.68979258268e-07 -3.64388432038e-05)
(9.52333005137e-07 5.91363188252e-07 -3.53299246169e-05)
(1.11220929155e-06 5.08536639614e-07 -3.40605239541e-05)
(1.24551341243e-06 4.28001849932e-07 -3.26912371086e-05)
(1.35204436913e-06 3.56639634773e-07 -3.13037524354e-05)
(1.43646831343e-06 2.97801485294e-07 -2.9980879235e-05)
(1.50580464818e-06 2.50516135885e-07 -2.87866032823e-05)
(1.56616578542e-06 2.1089492275e-07 -2.77615065051e-05)
(1.62076989763e-06 1.73341676775e-07 -2.69308156337e-05)
(1.66802738629e-06 1.32254220494e-07 -2.63077632744e-05)
(1.70706044883e-06 8.40743085001e-08 -2.58962811855e-05)
(1.73055932361e-06 2.94581093705e-08 -2.56888538182e-05)
(1.40945781533e-07 1.1584577469e-06 -3.65708957464e-05)
(3.89165004162e-07 1.13768394862e-06 -3.62197368603e-05)
(6.34945000232e-07 1.07951710546e-06 -3.55663940279e-05)
(8.59103324646e-07 9.94441972395e-07 -3.46734456889e-05)
(1.06070837017e-06 8.91709542038e-07 -3.35811412658e-05)
(1.2352391041e-06 7.81407753123e-07 -3.2333322899e-05)
(1.3801056399e-06 6.72736994213e-07 -3.09939091565e-05)
(1.49654934108e-06 5.73444410019e-07 -2.96446603332e-05)
(1.59027501899e-06 4.86725613633e-07 -2.83643993674e-05)
(1.66843374286e-06 4.11011163256e-07 -2.72113973082e-05)
(1.73661170956e-06 3.42049124885e-07 -2.62209591712e-05)
(1.7974214043e-06 2.74511476646e-07 -2.5415119173e-05)
(1.84844963351e-06 2.03480371555e-07 -2.48062671423e-05)
(1.88967447489e-06 1.26087055488e-07 -2.43982269365e-05)
(1.91277650392e-06 4.31775565946e-08 -2.41843488937e-05)
(1.6285957695e-07 1.60208469262e-06 -3.40801398156e-05)
(4.44847305088e-07 1.57191255103e-06 -3.37202123488e-05)
(7.24638917726e-07 1.49705805425e-06 -3.30740828202e-05)
(9.77270009405e-07 1.38725360852e-06 -3.22069876115e-05)
(1.2020979323e-06 1.25433009566e-06 -3.11521215092e-05)
(1.39457770052e-06 1.11012135785e-06 -2.99525709419e-05)
(1.55323202614e-06 9.65583830919e-07 -2.86725387244e-05)
(1.68064916451e-06 8.29434737974e-07 -2.73903289239e-05)
(1.78327676717e-06 7.05270979878e-07 -2.61778956015e-05)
(1.86820065542e-06 5.91862542408e-07 -2.50865398399e-05)
(1.94063348047e-06 4.85534231643e-07 -2.41464372944e-05)
(2.00315952155e-06 3.81924907919e-07 -2.33766558217e-05)
(2.05354612598e-06 2.77040598313e-07 -2.27901774016e-05)
(2.09330800254e-06 1.68689227483e-07 -2.23920181645e-05)
(2.11330133997e-06 5.70574505228e-08 -2.21762932307e-05)
(1.87702096275e-07 2.08194331648e-06 -3.06157615017e-05)
(5.07225475984e-07 2.04322875892e-06 -3.02742695367e-05)
(8.24511562363e-07 1.94657327068e-06 -2.96539270466e-05)
(1.10736078899e-06 1.80835869697e-06 -2.88423563301e-05)
(1.35629555551e-06 1.64070872126e-06 -2.7861876014e-05)
(1.56646356889e-06 1.45784969253e-06 -2.67529179614e-05)
(1.73772375734e-06 1.27214000549e-06 -2.55761386706e-05)
(1.87379443425e-06 1.09339002594e-06 -2.44024087915e-05)
(1.98167001044e-06 9.26153875697e-07 -2.32939789068e-05)
(2.06843147491e-06 7.70420086683e-07 -2.22943334934e-05)
(2.13938829303e-06 6.23788042658e-07 -2.1429642806e-05)
(2.19777974646e-06 4.83022627059e-07 -2.07164951837e-05)
(2.24230073518e-06 3.44881331135e-07 -2.01676800085e-05)
(2.27654249472e-06 2.07301302454e-07 -1.97897789258e-05)
(2.29098748093e-06 6.95826016005e-08 -1.95783130489e-05)
(2.12596679092e-07 2.5098199754e-06 -2.59942577157e-05)
(5.64794502566e-07 2.46133268986e-06 -2.56517450302e-05)
(9.13253259889e-07 2.34343640863e-06 -2.51070692202e-05)
(1.2212061591e-06 2.17685385125e-06 -2.43901885474e-05)
(1.48759780233e-06 1.97586697971e-06 -2.3532967336e-05)
(1.70868918042e-06 1.75609837718e-06 -2.25671743522e-05)
(1.88550681472e-06 1.5312747441e-06 -2.15469249677e-05)
(2.02287347607e-06 1.31222810058e-06 -2.0532318705e-05)
(2.12824376825e-06 1.10476430688e-06 -1.95736005484e-05)
(2.20890132254e-06 9.10571896067e-07 -1.87055458032e-05)
(2.27085383591e-06 7.28813139424e-07 -1.79515355349e-05)
(2.31867916753e-06 5.57147531585e-07 -1.73272804415e-05)
(2.35232597029e-06 3.92764489609e-07 -1.68440652182e-05)
(2.37746813832e-06 2.33321892663e-07 -1.65076545342e-05)
(2.38428450501e-06 7.77775431748e-08 -1.63134843642e-05)
(2.25259965096e-07 2.74793807573e-06 -1.99937330049e-05)
(5.89527209627e-07 2.68691917764e-06 -1.97272171784e-05)
(9.5044439289e-07 2.55296514295e-06 -1.92621002543e-05)
(1.26306497573e-06 2.36670135832e-06 -1.86921480197e-05)
(1.52857564785e-06 2.14361354708e-06 -1.80111823108e-05)
(1.74372585121e-06 1.90035704393e-06 -1.72509737234e-05)
(1.91089554619e-06 1.65120177001e-06 -1.64522315671e-05)
(2.0358945888e-06 1.40751178198e-06 -1.56603594304e-05)
(2.12654360729e-06 1.17613451237e-06 -1.49111383482e-05)
(2.19046619828e-06 9.60264146312e-07 -1.42291729735e-05)
(2.23469970869e-06 7.603468689e-07 -1.3634179751e-05)
(2.26525220926e-06 5.74504121274e-07 -1.31408158458e-05)
(2.28315270527e-06 4.00221946558e-07 -1.27576787661e-05)
(2.29532061208e-06 2.35096246443e-07 -1.24874727018e-05)
(2.29273969637e-06 7.78501217896e-08 -1.23240436635e-05)
(2.0594215356e-07 2.50873438838e-06 -1.26186888509e-05)
(5.30427656703e-07 2.44264595522e-06 -1.24089454656e-05)
(8.48251600337e-07 2.31090131177e-06 -1.21200180341e-05)
(1.11950686205e-06 2.1336957304e-06 -1.17449333102e-05)
(1.34387548668e-06 1.92401699076e-06 -1.13074271476e-05)
(1.51983069802e-06 1.69722540748e-06 -1.0818459677e-05)
(1.6509151482e-06 1.4660070267e-06 -1.03064821302e-05)
(1.74303855834e-06 1.24068581697e-06 -9.80017289146e-06)
(1.80370254871e-06 1.02779304899e-06 -9.32080491452e-06)
(1.84023212331e-06 8.30902330768e-07 -8.88245084966e-06)
(1.85984486244e-06 6.50953419061e-07 -8.49843093334e-06)
(1.86882507487e-06 4.86226564854e-07 -8.17913538421e-06)
(1.86859473437e-06 3.35214078387e-07 -7.92902414278e-06)
(1.86674323748e-06 1.95264361481e-07 -7.74945819466e-06)
(1.85536271719e-06 6.42543670307e-08 -7.635229874e-06)
(1.08837823834e-07 1.35888243311e-06 -4.24484163824e-06)
(2.81937326578e-07 1.30952806593e-06 -4.17380477666e-06)
(4.46632270662e-07 1.22821068429e-06 -4.06286503508e-06)
(5.83914046193e-07 1.12214872974e-06 -3.93399272592e-06)
(6.92270060741e-07 9.99718351903e-07 -3.78126688167e-06)
(7.71701944289e-07 8.69633951453e-07 -3.61196043734e-06)
(8.24819845592e-07 7.39487790863e-07 -3.43517482667e-06)
(8.56014986732e-07 6.15226499753e-07 -3.26096377161e-06)
(8.7025485142e-07 5.00554773241e-07 -3.09615537191e-06)
(8.72385704279e-07 3.97333744288e-07 -2.9450327027e-06)
(8.67093247579e-07 3.05825707604e-07 -2.81254791674e-06)
(8.5833399997e-07 2.24628152777e-07 -2.70240267537e-06)
(8.47402159915e-07 1.52920583388e-07 -2.61507977703e-06)
(8.3744745571e-07 8.82579575195e-08 -2.55275530536e-06)
(8.28903246195e-07 2.81905005107e-08 -2.51089239557e-06)
(3.46779659294e-08 -3.65953550278e-07 -4.05760499809e-05)
(9.72358500566e-08 -3.66055210478e-07 -4.02267356678e-05)
(1.57868989513e-07 -3.61618207314e-07 -3.95909298829e-05)
(2.14375519722e-07 -3.59096074103e-07 -3.87022014002e-05)
(2.66255508992e-07 -3.57230393214e-07 -3.76058273721e-05)
(3.11644502397e-07 -3.52882427113e-07 -3.63438055286e-05)
(3.48332932803e-07 -3.43771264228e-07 -3.49697581539e-05)
(3.75480473291e-07 -3.27465363726e-07 -3.35587261171e-05)
(3.94737089191e-07 -3.02281273311e-07 -3.21941754932e-05)
(4.09346582466e-07 -2.67806708839e-07 -3.0947798762e-05)
(4.2257406102e-07 -2.2475879068e-07 -2.98704852304e-05)
(4.3666869549e-07 -1.75518594959e-07 -2.89959184195e-05)
(4.51101392746e-07 -1.23467735074e-07 -2.83433304731e-05)
(4.63714980716e-07 -7.33947423943e-08 -2.79187424512e-05)
(4.744384096e-07 -2.47129165806e-08 -2.77095994947e-05)
(3.71428085571e-08 -2.41766480143e-07 -3.97061399376e-05)
(1.04001475806e-07 -2.44798994384e-07 -3.93832622577e-05)
(1.71563950271e-07 -2.40969959507e-07 -3.87338275496e-05)
(2.33845909171e-07 -2.42784585898e-07 -3.78350679547e-05)
(2.9081255686e-07 -2.45601510269e-07 -3.6729103745e-05)
(3.40425094547e-07 -2.45714760035e-07 -3.54582486811e-05)
(3.80959167908e-07 -2.40443737525e-07 -3.4079087123e-05)
(4.123824099e-07 -2.2735406189e-07 -3.26712329247e-05)
(4.37156334055e-07 -2.05361398534e-07 -3.13196285941e-05)
(4.59011722636e-07 -1.75158052944e-07 -3.00931362137e-05)
(4.81260070741e-07 -1.38975403589e-07 -2.9037627403e-05)
(5.05611866031e-07 -1.00663215613e-07 -2.81827835643e-05)
(5.29863032417e-07 -6.48619933406e-08 -2.75445639702e-05)
(5.5019443309e-07 -3.54070266115e-08 -2.71279659637e-05)
(5.63952688595e-07 -1.07060545672e-08 -2.69229836209e-05)
(4.321165416e-08 -7.3989337676e-08 -3.85297746813e-05)
(1.20261625576e-07 -7.1732334327e-08 -3.81689941387e-05)
(1.97547281033e-07 -7.29579813979e-08 -3.75106997097e-05)
(2.68287202061e-07 -8.19353532922e-08 -3.66041764525e-05)
(3.32405762778e-07 -9.35958916833e-08 -3.54927499967e-05)
(3.87852514128e-07 -1.03231605173e-07 -3.42194613176e-05)
(4.33625427006e-07 -1.07488826578e-07 -3.28458251065e-05)
(4.70572365506e-07 -1.03807887282e-07 -3.14541342696e-05)
(5.01750319515e-07 -9.17058373464e-08 -3.01275125157e-05)
(5.30854858283e-07 -7.28759434695e-08 -2.89299100451e-05)
(5.60617543749e-07 -5.04966857341e-08 -2.79016949922e-05)
(5.9187250232e-07 -2.88092903408e-08 -2.70685307157e-05)
(6.21231637257e-07 -1.22628944321e-08 -2.64436804139e-05)
(6.45347136522e-07 -3.32038472913e-09 -2.60312580469e-05)
(6.60444760427e-07 -6.12572878337e-11 -2.58223714015e-05)
(5.17168927801e-08 1.66671546517e-07 -3.67530712642e-05)
(1.41782713133e-07 1.66376849595e-07 -3.63990021377e-05)
(2.33210279421e-07 1.56239468189e-07 -3.57440986167e-05)
(3.16782503421e-07 1.35659678991e-07 -3.48494204796e-05)
(3.91971913373e-07 1.09796925577e-07 -3.37540616785e-05)
(4.56839296449e-07 8.44566676797e-08 -3.25018382393e-05)
(5.10873180493e-07 6.37620841459e-08 -3.11574660073e-05)
(5.55582006817e-07 5.05182421371e-08 -2.9803217191e-05)
(5.94332424433e-07 4.48702488431e-08 -2.85182580462e-05)
(6.30569625443e-07 4.46414241622e-08 -2.73609068643e-05)
(6.66443493443e-07 4.6433814622e-08 -2.63663608967e-05)
(7.02226877727e-07 4.63278649783e-08 -2.55570199242e-05)
(7.33763681004e-07 4.05902105932e-08 -2.49452877081e-05)
(7.58642753596e-07 2.79206575894e-08 -2.45353445582e-05)
(7.73522322372e-07 1.00642944964e-08 -2.43184529722e-05)
(6.34598694981e-08 4.46742620259e-07 -3.42599663646e-05)
(1.72344770722e-07 4.39071900685e-07 -3.3896004495e-05)
(2.82813440617e-07 4.1904582359e-07 -3.3249723848e-05)
(3.82916568739e-07 3.84270503229e-07 -3.2381330646e-05)
(4.71933051357e-07 3.41245606553e-07 -3.13239211931e-05)
(5.48121488309e-07 2.96429076273e-07 -3.01204695652e-05)
(6.11498439992e-07 2.54723731591e-07 -2.88357741086e-05)
(6.64112172781e-07 2.19280886105e-07 -2.75485336732e-05)
(7.09444646925e-07 1.90333371113e-07 -2.63310233842e-05)
(7.50612751275e-07 1.65909359118e-07 -2.52346661621e-05)
(7.89395217162e-07 1.43109390372e-07 -2.42897195348e-05)
(8.26041727089e-07 1.18836777061e-07 -2.35156876756e-05)
(8.56387914623e-07 9.01530593114e-08 -2.29256442552e-05)
(8.79603894285e-07 5.66752965593e-08 -2.25253375875e-05)
(8.92791494721e-07 1.93536550269e-08 -2.23068511294e-05)
(7.67511069245e-08 7.44024391244e-07 -3.07842891536e-05)
(2.06815626582e-07 7.30489714437e-07 -3.04423622548e-05)
(3.38769808907e-07 6.98081373495e-07 -2.98212275425e-05)
(4.56608690105e-07 6.46891770667e-07 -2.90078348346e-05)
(5.60321473807e-07 5.83945668352e-07 -2.80242894812e-05)
(6.47967855805e-07 5.16602715871e-07 -2.69111776315e-05)
(7.20151850758e-07 4.50421375569e-07 -2.57295332994e-05)
(7.79250441047e-07 3.89066651297e-07 -2.45504863378e-05)
(8.28743692562e-07 3.33329341461e-07 -2.34364864424e-05)
(8.71529376367e-07 2.82071469163e-07 -2.24311142652e-05)
(9.09444499485e-07 2.33357895115e-07 -2.15608364707e-05)
(9.4330689417e-07 1.84985216074e-07 -2.08429005708e-05)
(9.69452689227e-07 1.34596515343e-07 -2.02903456788e-05)
(9.89094970731e-07 8.20684623774e-08 -1.9910505893e-05)
(9.99581366969e-07 2.75437786152e-08 -1.96968671859e-05)
(9.04446014112e-08 1.01153038139e-06 -2.61372320288e-05)
(2.4052131275e-07 9.9377823828e-07 -2.5794347465e-05)
(3.90737321334e-07 9.48326789644e-07 -2.52496362164e-05)
(5.23999380844e-07 8.80782912187e-07 -2.45315164124e-05)
(6.39293213118e-07 7.98235917855e-07 -2.36718558083e-05)
(7.3510731876e-07 7.08965672917e-07 -2.27025835645e-05)
(8.12534959928e-07 6.1902049168e-07 -2.16779827673e-05)
(8.74213115153e-07 5.32680844036e-07 -2.06583003052e-05)
(9.23600242793e-07 4.51567542321e-07 -1.96939023999e-05)
(9.63575585426e-07 3.75676953855e-07 -1.88196827382e-05)
(9.96495825112e-07 3.04098841359e-07 -1.80595421009e-05)
(1.02422079071e-06 2.35261577816e-07 -1.74299412814e-05)
(1.04367074444e-06 1.6723246493e-07 -1.6942365903e-05)
(1.05823351708e-06 9.98695204249e-08 -1.66029865168e-05)
(1.06487432465e-06 3.31126520764e-08 -1.64052230819e-05)
(9.83959650443e-08 1.17612492328e-06 -2.0089685036e-05)
(2.57594731537e-07 1.15278333784e-06 -1.98217242528e-05)
(4.17759470526e-07 1.0980367261e-06 -1.93576147038e-05)
(5.56662928944e-07 1.01848608227e-06 -1.87863469973e-05)
(6.74423994576e-07 9.22509906338e-07 -1.81037563059e-05)
(7.7001874572e-07 8.18247802953e-07 -1.734085123e-05)
(8.44853877021e-07 7.12217023501e-07 -1.65384738836e-05)
(9.01916173224e-07 6.09079798031e-07 -1.57420322058e-05)
(9.44685096336e-07 5.11312282537e-07 -1.49873617385e-05)
(9.76230222346e-07 4.19939529193e-07 -1.42992914105e-05)
(9.99670235204e-07 3.34780560255e-07 -1.36982424364e-05)
(1.01779790543e-06 2.54519322293e-07 -1.31993320818e-05)
(1.02792991227e-06 1.77685474562e-07 -1.28109225668e-05)
(1.03536291603e-06 1.04473886192e-07 -1.25358760098e-05)
(1.03694407522e-06 3.43913957938e-08 -1.23680594624e-05)
(9.15794304699e-08 1.10536908059e-06 -1.263490846e-05)
(2.38236079779e-07 1.07766302481e-06 -1.24255174285e-05)
(3.82207311389e-07 1.02159384671e-06 -1.21353012546e-05)
(5.04527432433e-07 9.44092794918e-07 -1.17597807514e-05)
(6.0560846166e-07 8.51800134646e-07 -1.1321066838e-05)
(6.84568544275e-07 7.52294646964e-07 -1.08305010325e-05)
(7.43697830305e-07 6.51083737972e-07 -1.03161955711e-05)
(7.85776890879e-07 5.52588433843e-07 -9.80669729252e-06)
(8.14130957501e-07 4.59444606031e-07 -9.32324961492e-06)
(8.31849871646e-07 3.73114231019e-07 -8.88023102932e-06)
(8.42326838362e-07 2.9374067867e-07 -8.49162620227e-06)
(8.4847225575e-07 2.20085461404e-07 -8.16774854079e-06)
(8.48011887544e-07 1.51796035736e-07 -7.91283507586e-06)
(8.48641504923e-07 8.86515527535e-08 -7.72902628439e-06)
(8.4436803516e-07 2.90188203742e-08 -7.61508488221e-06)
(4.64362693321e-08 5.82378227375e-07 -4.16319858386e-06)
(1.2214134493e-07 5.60836449867e-07 -4.09238020389e-06)
(1.93900405548e-07 5.25971252522e-07 -3.98312716228e-06)
(2.53901335486e-07 4.80156501465e-07 -3.85556979334e-06)
(3.00860345088e-07 4.27233588882e-07 -3.70466248412e-06)
(3.35087244708e-07 3.7129081743e-07 -3.53707803237e-06)
(3.57786686152e-07 3.15604919794e-07 -3.36177823773e-06)
(3.71011996657e-07 2.62650635874e-07 -3.18861462524e-06)
(3.76934815506e-07 2.13943042256e-07 -3.02432025635e-06)
(3.77677892852e-07 1.70223229398e-07 -2.8733090395e-06)
(3.75404049905e-07 1.31438818044e-07 -2.7407734907e-06)
(3.71869918768e-07 9.66385722955e-08 -2.6301599334e-06)
(3.66476823883e-07 6.59129570943e-08 -2.5423702633e-06)
(3.62532518147e-07 3.81907726434e-08 -2.48024754872e-06)
(3.58404471481e-07 1.20521185238e-08 -2.43883915306e-06)
(-3.68756078024e-08 -1.26336510812e-06 -4.07651941263e-05)
(-1.08891466181e-07 -1.2405450289e-06 -4.04195857946e-05)
(-1.79845259562e-07 -1.2016421658e-06 -3.97853868439e-05)
(-2.47776662864e-07 -1.15273565157e-06 -3.88977147121e-05)
(-3.11680834109e-07 -1.09454097548e-06 -3.78014651428e-05)
(-3.71234527361e-07 -1.02562627609e-06 -3.65384999087e-05)
(-4.26265928089e-07 -9.4650504272e-07 -3.51627090062e-05)
(-4.7621267551e-07 -8.57883357824e-07 -3.37495562345e-05)
(-5.19957155226e-07 -7.60575534119e-07 -3.23828006221e-05)
(-5.56241144759e-07 -6.55253255099e-07 -3.11340740548e-05)
(-5.84031834464e-07 -5.4251078166e-07 -3.00540210484e-05)
(-6.02430781214e-07 -4.23884269179e-07 -2.91768603801e-05)
(-6.12123690338e-07 -3.01711550375e-07 -2.8522494509e-05)
(-6.16289689657e-07 -1.80490870508e-07 -2.8097004214e-05)
(-6.18307424145e-07 -6.06424356412e-08 -2.78867264084e-05)
(-3.84898326596e-08 -1.1345992571e-06 -3.98925724338e-05)
(-1.13422984615e-07 -1.11513433921e-06 -3.95682360321e-05)
(-1.8316236512e-07 -1.07348531461e-06 -3.89198524604e-05)
(-2.48610660995e-07 -1.02540317749e-06 -3.80215720181e-05)
(-3.09139594922e-07 -9.68325208836e-07 -3.69149636432e-05)
(-3.64474521758e-07 -9.00864929197e-07 -3.56424408599e-05)
(-4.14151464501e-07 -8.2357376181e-07 -3.42611541794e-05)
(-4.5718826771e-07 -7.37339348326e-07 -3.2851060514e-05)
(-4.92154396354e-07 -6.43400744289e-07 -3.14972619357e-05)
(-5.17707156717e-07 -5.43248193924e-07 -3.02684330969e-05)
(-5.33009385583e-07 -4.38860009767e-07 -2.92101676609e-05)
(-5.3786952172e-07 -3.33371227546e-07 -2.83527423523e-05)
(-5.34779020588e-07 -2.30720735376e-07 -2.77126363786e-05)
(-5.29026277168e-07 -1.34776683735e-07 -2.72949797069e-05)
(-5.26320652868e-07 -4.38699506596e-08 -2.70882364981e-05)
(-3.77636924873e-08 -1.01846455764e-06 -3.87104900425e-05)
(-1.10475786183e-07 -9.93580544134e-07 -3.83529428253e-05)
(-1.77143408662e-07 -9.51976841509e-07 -3.76942545846e-05)
(-2.39144041259e-07 -9.04278554209e-07 -3.67880836924e-05)
(-2.95649419638e-07 -8.4833177537e-07 -3.5675516684e-05)
(-3.46441543814e-07 -7.82676687329e-07 -3.4400026652e-05)
(-3.90539139746e-07 -7.0795615441e-07 -3.30238611285e-05)
(-4.2658958017e-07 -6.25410191441e-07 -3.16296651394e-05)
(-4.53136425667e-07 -5.36934811679e-07 -3.03007102734e-05)
(-4.69282928113e-07 -4.44829272627e-07 -2.9100735734e-05)
(-4.74995624144e-07 -3.51836197461e-07 -2.80698691424e-05)
(-4.7116519428e-07 -2.61441181926e-07 -2.72342293804e-05)
(-4.6166472477e-07 -1.77294700714e-07 -2.66073108061e-05)
(-4.51980046182e-07 -1.01831560235e-07 -2.61932322096e-05)
(-4.47665342199e-07 -3.28360719493e-08 -2.59831923613e-05)
(-3.64053155355e-08 -8.84265059577e-07 -3.69387406713e-05)
(-1.06911331443e-07 -8.60098307645e-07 -3.65827251153e-05)
(-1.69867663388e-07 -8.20878551117e-07 -3.59268581608e-05)
(-2.27076746011e-07 -7.75385892038e-07 -3.50314062366e-05)
(-2.78342335661e-07 -7.22520272637e-07 -3.39343114487e-05)
(-3.23101445186e-07 -6.60834192082e-07 -3.26796244545e-05)
(-3.6024715941e-07 -5.91170586052e-07 -3.13327447476e-05)
(-3.88417909076e-07 -5.15187332189e-07 -2.9976182183e-05)
(-4.06521480104e-07 -4.35361895082e-07 -2.86891265864e-05)
(-4.14387418947e-07 -3.54445096475e-07 -2.7529574851e-05)
(-4.12836522109e-07 -2.7528195721e-07 -2.65324940267e-05)
(-4.03524793595e-07 -2.00954757748e-07 -2.5720719633e-05)
(-3.91282641192e-07 -1.34205589268e-07 -2.51067999419e-05)
(-3.81240233901e-07 -7.60131229393e-08 -2.46951099835e-05)
(-3.77096491289e-07 -2.437441283e-08 -2.44775016749e-05)
(-3.37911635084e-08 -7.49940827612e-07 -3.44428316551e-05)
(-9.89663119909e-08 -7.3042338464e-07 -3.40764313571e-05)