/*--------------------------------*- C++ -*----------------------------------*\
| =========                 |                                                 |
| \\      /  F ield         | foam-extend: Open Source CFD                    |
|  \\    /   O peration     | Version:     4.1                                |
|   \\  /    A nd           | Web:         http://www.foam-extend.org         |
|    \\/     M anipulation  |                                                 |
\*---------------------------------------------------------------------------*/
FoamFile
{
    version     2.0;
    format      ascii;
    class       vectorField;
    location    "1";
    object      solidsCellD_iteration1;
}
// * * * * * * * * * * * * * * * * * * * * * * * * * * * * * * * * * * * * * //


1050
(
(-8.01954876473e-09 -6.21064277947e-07 -1.09564728598e-05)
(-2.48907073833e-08 -6.23959200435e-07 -1.08784605491e-05)
(-4.41154462405e-08 -6.2445560436e-07 -1.07195558802e-05)
(-6.72633351367e-08 -6.21106941833e-07 -1.04998239574e-05)
(-9.44396997027e-08 -6.10033052436e-07 -1.02312268106e-05)
(-1.25191396435e-07 -5.89026048074e-07 -9.92769002106e-06)
(-1.58510216254e-07 -5.58093419672e-07 -9.60115220711e-06)
(-1.93238668413e-07 -5.17959877091e-07 -9.26521645157e-06)
(-2.2829658002e-07 -4.68959635541e-07 -8.93740053742e-06)
(-2.62487615581e-07 -4.11412151142e-07 -8.63677732128e-06)
(-2.94315709563e-07 -3.46200937705e-07 -8.37894672952e-06)
(-3.22100539374e-07 -2.74729669567e-07 -8.17322930701e-06)
(-3.44269075241e-07 -1.98590066111e-07 -8.02308171075e-06)
(-3.59589508641e-07 -1.19497165837e-07 -7.92831316257e-06)
(-3.67288591263e-07 -3.95943191574e-08 -7.88661972842e-06)
(-5.8798528446e-09 -5.59106811952e-07 -1.08722237943e-05)
(-1.99697509155e-08 -5.58045484115e-07 -1.07759305677e-05)
(-3.59200115276e-08 -5.62506997975e-07 -1.06212856118e-05)
(-5.57468509523e-08 -5.63369390078e-07 -1.04046838273e-05)
(-7.98957344057e-08 -5.5692036985e-07 -1.01384575354e-05)
(-1.07784345774e-07 -5.4046201099e-07 -9.83648115323e-06)
(-1.38260012594e-07 -5.13896976607e-07 -9.51049622375e-06)
(-1.70069630608e-07 -4.77999023352e-07 -9.17447329776e-06)
(-2.02087619371e-07 -4.33152102808e-07 -8.84673247751e-06)
(-2.33074813194e-07 -3.79769792774e-07 -8.54690372293e-06)
(-2.61503716339e-07 -3.1890607089e-07 -8.29053437057e-06)
(-2.85760291658e-07 -2.52201553854e-07 -8.08643261962e-06)
(-3.04573450204e-07 -1.81478822713e-07 -7.93760762085e-06)
(-3.1743314362e-07 -1.08592553143e-07 -7.84407580595e-06)
(-3.24740198246e-07 -3.56438533136e-08 -7.8052642031e-06)
(-2.01856964769e-09 -4.55411001966e-07 -1.06269226674e-05)
(-8.79540219901e-09 -4.63967678712e-07 -1.05453253043e-05)
(-1.88668751719e-08 -4.69547519864e-07 -1.039989847e-05)
(-3.30961467832e-08 -4.73710451665e-07 -1.01887897425e-05)
(-5.17896298936e-08 -4.71741176484e-07 -9.92889923711e-06)
(-7.42761311982e-08 -4.60635176919e-07 -9.63063616262e-06)
(-9.94484024006e-08 -4.40014211056e-07 -9.3080539049e-06)
(-1.26086605932e-07 -4.1055417567e-07 -8.97607454214e-06)
(-1.53040278091e-07 -3.72645921698e-07 -8.65316112404e-06)
(-1.79005226738e-07 -3.26737490892e-07 -8.35835318798e-06)
(-2.02427775425e-07 -2.73929544655e-07 -8.10641707863e-06)
(-2.21799831574e-07 -2.15928138507e-07 -7.90555444402e-06)
(-2.36004073869e-07 -1.54625657933e-07 -7.75883111246e-06)
(-2.44384369953e-07 -9.19273329149e-08 -7.6667716945e-06)
(-2.49087320247e-07 -2.97448470304e-08 -7.62700369916e-06)
(1.59765586711e-09 -3.42424590835e-07 -1.02296357186e-05)
(7.22600610382e-10 -3.43043164313e-07 -1.01613414203e-05)
(-1.14954910001e-09 -3.51120577974e-07 -1.00168425949e-05)
(-6.86104804689e-09 -3.58251675936e-07 -9.81529907159e-06)
(-1.68444451955e-08 -3.61161801333e-07 -9.56162021653e-06)
(-3.07899223408e-08 -3.56561212606e-07 -9.26804415289e-06)
(-4.7816690575e-08 -3.43614851181e-07 -8.95097414165e-06)
(-6.68250569056e-08 -3.22700376515e-07 -8.62638286007e-06)
(-8.66529221636e-08 -2.94134291333e-07 -8.31234797416e-06)
(-1.05923421877e-07 -2.58381131175e-07 -8.02654070418e-06)
(-1.23082751934e-07 -2.16540045586e-07 -7.78231401346e-06)
(-1.36880700562e-07 -1.70258459606e-07 -7.58697351452e-06)
(-1.46886208849e-07 -1.21340106911e-07 -7.44369785234e-06)
(-1.52691227921e-07 -7.15939618555e-08 -7.35373311328e-06)
(-1.55717288155e-07 -2.26241793539e-08 -7.31234789132e-06)
(7.16605107639e-09 -2.0664730258e-07 -9.64669732857e-06)
(1.63779638996e-08 -2.14253098587e-07 -9.57111900967e-06)
(2.43766337311e-08 -2.2194775335e-07 -9.42680650638e-06)
(2.81950721189e-08 -2.3145735375e-07 -9.23122857792e-06)
(2.75022802356e-08 -2.38686625182e-07 -8.98378089895e-06)
(2.26253965367e-08 -2.40468849533e-07 -8.69875027958e-06)
(1.43422024151e-08 -2.3561538492e-07 -8.39284997872e-06)
(3.61776360842e-09 -2.24113092828e-07 -8.08203546238e-06)
(-8.44216534968e-09 -2.0610266009e-07 -7.78312887641e-06)
(-2.04629773778e-08 -1.81962872296e-07 -7.51172047117e-06)
(-3.09848742471e-08 -1.52661761576e-07 -7.27935023068e-06)
(-3.89452176548e-08 -1.1962327881e-07 -7.09248334057e-06)
(-4.42415853619e-08 -8.44488976927e-08 -6.95457162398e-06)
(-4.72694010527e-08 -4.89054549209e-08 -6.86765539752e-06)
(-4.93305155228e-08 -1.45802095601e-08 -6.82546205354e-06)
(1.24862096103e-08 -7.32997642948e-08 -8.78716419618e-06)
(3.06471292004e-08 -7.95034795328e-08 -8.71216797543e-06)
(4.86819718412e-08 -8.57833846523e-08 -8.57283569306e-06)
(6.23944950744e-08 -9.65855822346e-08 -8.38701120836e-06)
(7.18751588271e-08 -1.07613574559e-07 -8.15212624215e-06)
(7.70491009509e-08 -1.15728494223e-07 -7.88367818531e-06)
(7.84575630987e-08 -1.19426129197e-07 -7.59731134564e-06)
(7.68459360178e-08 -1.18200062788e-07 -7.30813971884e-06)
(7.3198455925e-08 -1.11887715764e-07 -7.03139972033e-06)
(6.88903162273e-08 -1.00654416757e-07 -6.78031597856e-06)
(6.51814723629e-08 -8.52073472679e-08 -6.5644442354e-06)
(6.26594872354e-08 -6.66047241001e-08 -6.3897484895e-06)
(6.12615646885e-08 -4.61350095225e-08 -6.26046939253e-06)
(6.04330365012e-08 -2.54961545589e-08 -6.17937575772e-06)
(5.8655543644e-08 -6.34532490608e-09 -6.13908435905e-06)
(1.92507921324e-08 6.21248735215e-08 -7.59803980325e-06)
(4.73813054649e-08 5.9628875008e-08 -7.53535390072e-06)
(7.55840311442e-08 4.87662568429e-08 -7.41277305081e-06)
(9.99206125221e-08 3.56897554085e-08 -7.24024451937e-06)
(1.18936356617e-07 1.99134147156e-08 -7.02860691268e-06)
(1.33275034629e-07 4.84929222764e-09 -6.78779039158e-06)
(1.43192706722e-07 -7.71881713206e-09 -6.53223126258e-06)
(1.49392004118e-07 -1.69376731681e-08 -6.2752437842e-06)
(1.52783058861e-07 -2.23749289308e-08 -6.0299872217e-06)
(1.54797920767e-07 -2.39570149778e-08 -5.80707725696e-06)
(1.56565013088e-07 -2.20792769854e-08 -5.61408618477e-06)
(1.58101369087e-07 -1.74122150466e-08 -5.45691946034e-06)
(1.58976472681e-07 -1.09609907418e-08 -5.34112138625e-06)
(1.58879286684e-07 -4.35412210235e-09 -5.27004209566e-06)
(1.56653476857e-07 9.05057458461e-10 -5.23506834386e-06)
(2.64044178661e-08 1.8545446131e-07 -6.0283478882e-06)
(6.19227923534e-08 1.80544568904e-07 -5.96073747047e-06)
(1.00102271923e-07 1.67812094349e-07 -5.86033606661e-06)
(1.33116754548e-07 1.50683263496e-07 -5.7173209698e-06)
(1.60382495857e-07 1.30162648312e-07 -5.54388138229e-06)
(1.81938684728e-07 1.08236373859e-07 -5.34857663884e-06)
(1.98034215436e-07 8.72625093628e-08 -5.14137376753e-06)
(2.09382677263e-07 6.83911163586e-08 -4.93314061366e-06)
(2.16936569242e-07 5.23445688847e-08 -4.73422228282e-06)
(2.22242033798e-07 3.94636006234e-08 -4.55255203414e-06)
(2.26502056618e-07 2.96495302378e-08 -4.39408041853e-06)
(2.29664651193e-07 2.2486426335e-08 -4.26481238643e-06)
(2.31428351654e-07 1.70746277542e-08 -4.17094994849e-06)
(2.32001512947e-07 1.19204853401e-08 -4.11512258765e-06)
(2.30503260607e-07 6.14778660117e-09 -4.08716270677e-06)
(3.04973989359e-08 2.81207140512e-07 -3.9327055156e-06)
(7.31645609275e-08 2.6340515726e-07 -3.91315472376e-06)
(1.15456329704e-07 2.50437436137e-07 -3.8346712374e-06)
(1.51711582352e-07 2.30411509999e-07 -3.74081312981e-06)
(1.82643762888e-07 2.06117441237e-07 -3.62654967803e-06)
(2.06743995905e-07 1.79536723985e-07 -3.4963753768e-06)
(2.2527251873e-07 1.52653336463e-07 -3.35826121353e-06)
(2.38464124547e-07 1.2684988632e-07 -3.21898445166e-06)
(2.47203378158e-07 1.03088347828e-07 -3.08551626985e-06)
(2.52916371607e-07 8.19949115595e-08 -2.96298828978e-06)
(2.56806930269e-07 6.37554028394e-08 -2.85573894875e-06)
(2.59130753529e-07 4.81320939654e-08 -2.7689481865e-06)
(2.60319838812e-07 3.43459049743e-08 -2.70748261004e-06)
(2.6096592232e-07 2.13332130808e-08 -2.6717614928e-06)
(2.59738501935e-07 8.85885589186e-09 -2.65153971323e-06)
(2.34084891269e-08 2.27719329254e-07 -1.36713958002e-06)
(5.10140548215e-08 2.23816631999e-07 -1.34767765647e-06)
(8.22315174565e-08 2.11305928313e-07 -1.32379641752e-06)
(1.10015982555e-07 1.95575621601e-07 -1.29197930595e-06)
(1.32213770021e-07 1.76224635791e-07 -1.2517131549e-06)
(1.49883611561e-07 1.54839675728e-07 -1.2065572718e-06)
(1.62720934218e-07 1.32879555215e-07 -1.15815831776e-06)
(1.71387625384e-07 1.11400346937e-07 -1.10922861027e-06)
(1.76570438151e-07 9.1190096713e-08 -1.06227952391e-06)
(1.7929975232e-07 7.27778710395e-08 -1.01908005259e-06)
(1.80469917383e-07 5.6397329515e-08 -9.81405255127e-07)
(1.80539147062e-07 4.19703177403e-08 -9.51681369067e-07)
(1.80482598711e-07 2.91003975976e-08 -9.31763241381e-07)
(1.79878954181e-07 1.73933288886e-08 -9.21016999275e-07)
(1.80723913647e-07 6.84800531234e-09 -9.13447350956e-07)
(-1.12634773663e-08 -6.58552493901e-07 -1.09902671684e-05)
(-3.39487514463e-08 -6.63236502752e-07 -1.0923090122e-05)
(-5.91756651064e-08 -6.60565410549e-07 -1.07651456926e-05)
(-8.80634236e-08 -6.53262233135e-07 -1.05455011408e-05)
(-1.20584656086e-07 -6.37295096405e-07 -1.02780627414e-05)
(-1.56192592351e-07 -6.10953626613e-07 -9.97509705058e-06)
(-1.93663436885e-07 -5.74907942267e-07 -9.64850587517e-06)
(-2.31724581281e-07 -5.30338982018e-07 -9.31156230875e-06)
(-2.69307893487e-07 -4.77864704812e-07 -8.98240709274e-06)
(-3.05351008593e-07 -4.17947935158e-07 -8.68075420427e-06)
(-3.38586475278e-07 -3.51357840931e-07 -8.42247566276e-06)
(-3.67527256737e-07 -2.79142863557e-07 -8.21679186861e-06)
(-3.90559083271e-07 -2.02435643982e-07 -8.06690010267e-06)
(-4.05818334641e-07 -1.22477246172e-07 -7.97265086725e-06)
(-4.11052144427e-07 -4.08593640513e-08 -7.93326925686e-06)
(-9.5064552786e-09 -5.98067845964e-07 -1.0911980145e-05)
(-3.00319251452e-08 -5.93956474658e-07 -1.08247696931e-05)
(-5.18943476343e-08 -5.95421091755e-07 -1.06667594056e-05)
(-7.7230898225e-08 -5.92377572544e-07 -1.04515583942e-05)
(-1.06399893564e-07 -5.81203217102e-07 -1.01852459513e-05)
(-1.38740680684e-07 -5.59559739027e-07 -9.88299336229e-06)
(-1.72866861058e-07 -5.27874837841e-07 -9.55683512272e-06)
(-2.07418646615e-07 -4.87398775622e-07 -9.22047873325e-06)
(-2.4130195107e-07 -4.38905498292e-07 -8.89255040047e-06)
(-2.73437613426e-07 -3.83052406938e-07 -8.59286710374e-06)
(-3.02552086144e-07 -3.20859064483e-07 -8.33698728815e-06)
(-3.27247826239e-07 -2.5369860501e-07 -8.13353070781e-06)
(-3.46301763313e-07 -1.83034242177e-07 -7.98541574049e-06)
(-3.58747451853e-07 -1.10286612858e-07 -7.89290758233e-06)
(-3.63548143371e-07 -3.66910046847e-08 -7.85572935824e-06)
(-5.82013504094e-09 -4.9755267506e-07 -1.06820574021e-05)
(-1.89584259714e-08 -5.05855454466e-07 -1.05919310864e-05)
(-3.55590962843e-08 -5.08926812866e-07 -1.04471685957e-05)
(-5.60489497173e-08 -5.09629278364e-07 -1.02368236427e-05)
(-8.06122461212e-08 -5.03271892643e-07 -9.97596903452e-06)
(-1.08317714963e-07 -4.87058661146e-07 -9.67709323977e-06)
(-1.3769826802e-07 -4.61108958002e-07 -9.35414886381e-06)
(-1.67384204837e-07 -4.26559567962e-07 -9.02178443917e-06)
(-1.96303902357e-07 -3.842203161e-07 -8.69859282952e-06)
(-2.23422206477e-07 -3.34861346702e-07 -8.4036841521e-06)
(-2.47542012515e-07 -2.7966168022e-07 -8.15188605654e-06)
(-2.67429930904e-07 -2.20187086459e-07 -7.9512759762e-06)
(-2.82099025594e-07 -1.58076263317e-07 -7.80490320713e-06)
(-2.90337544631e-07 -9.47861767101e-08 -7.71358949559e-06)
(-2.93115574311e-07 -3.13750894335e-08 -7.6738987127e-06)
(-2.81584714881e-09 -3.961679365e-07 -1.02716068422e-05)
(-1.13680286924e-08 -3.95441769848e-07 -1.02008293098e-05)
(-2.11716833647e-08 -4.00569474662e-07 -1.0060034611e-05)
(-3.43088859225e-08 -4.0437462446e-07 -9.85877415908e-06)
(-5.12242420699e-08 -4.02887507722e-07 -9.60500253361e-06)
(-7.12915156661e-08 -3.93104634035e-07 -9.31145464313e-06)
(-9.32883097395e-08 -3.74626745392e-07 -8.9943347619e-06)
(-1.15967421245e-07 -3.4821881255e-07 -8.66947112961e-06)
(-1.3829810127e-07 -3.14551323049e-07 -8.35508294515e-06)
(-1.59218949246e-07 -2.74382287733e-07 -8.06892916291e-06)
(-1.77537845189e-07 -2.28928556182e-07 -7.8245085034e-06)
(-1.92201128558e-07 -1.79802120548e-07 -7.62907656736e-06)
(-2.02902495234e-07 -1.28653465753e-07 -7.48573238211e-06)
(-2.08874539951e-07 -7.68273039136e-08 -7.39600888305e-06)
(-2.10837793709e-07 -2.52703684398e-08 -7.35309736432e-06)
(1.82916447948e-09 -2.73205653689e-07 -9.68912246676e-06)
(1.91642690822e-09 -2.7709605152e-07 -9.61410760359e-06)
(6.37237657486e-10 -2.82138369808e-07 -9.47193236008e-06)
(-3.9789317039e-09 -2.88309500056e-07 -9.27457401539e-06)
(-1.2488478901e-08 -2.91053899776e-07 -9.02622550395e-06)
(-2.43474293846e-08 -2.87556099411e-07 -8.74030101076e-06)
(-3.84528559087e-08 -2.76963153715e-07 -8.43343693838e-06)
(-5.37327208984e-08 -2.596139531e-07 -8.1216303652e-06)
(-6.92342071675e-08 -2.35926349486e-07 -7.82188389329e-06)
(-8.38636345026e-08 -2.06496786145e-07 -7.54977602075e-06)
(-9.6480541277e-08 -1.72410010333e-07 -7.31687211269e-06)
(-1.0616024506e-07 -1.35142680553e-07 -7.12959912518e-06)
(-1.12782357407e-07 -9.62181151952e-08 -6.99140996138e-06)
(-1.16397871192e-07 -5.68970619837e-08 -6.90456124904e-06)
(-1.17905221534e-07 -1.83598653584e-08 -6.86015411154e-06)
(6.02243269698e-09 -1.52691320041e-07 -8.83461321122e-06)
(1.40254616616e-08 -1.58650308408e-07 -8.76281780529e-06)
(2.14086267556e-08 -1.61409397902e-07 -8.61971534386e-06)
(2.49569125261e-08 -1.68054838195e-07 -8.43204238473e-06)
(2.52794672482e-08 -1.73734915974e-07 -8.19550823755e-06)
(2.22684177691e-08 -1.75670342127e-07 -7.92564252249e-06)
(1.68063806433e-08 -1.7267644679e-07 -7.6378493744e-06)
(9.64634094136e-09 -1.64623155617e-07 -7.34732590183e-06)
(1.5862938028e-09 -1.51573070902e-07 -7.06945868089e-06)
(-6.21979688973e-09 -1.33825294503e-07 -6.81730797537e-06)
(-1.27597204235e-08 -1.12188602218e-07 -6.60034620182e-06)
(-1.760438877e-08 -8.78569105573e-08 -6.4246391919e-06)
(-2.08066013294e-08 -6.21039135027e-08 -6.29475016758e-06)
(-2.26229960587e-08 -3.6067515681e-08 -6.21373693213e-06)
(-2.45853425436e-08 -1.11589392173e-08 -6.17174323641e-06)
(1.17386593101e-08 -3.3544829817e-08 -7.64421888155e-06)
(2.84685399849e-08 -3.74230859858e-08 -7.58479065846e-06)
(4.35514507534e-08 -4.4063719272e-08 -7.45960352019e-06)
(5.60226932229e-08 -5.1966251286e-08 -7.28689049989e-06)
(6.42908163648e-08 -6.12416390615e-08 -7.07465005515e-06)
(6.91463335452e-08 -6.87744584493e-08 -6.83302918281e-06)
(7.11297676501e-08 -7.32258702674e-08 -6.57647749994e-06)
(7.08655920615e-08 -7.41607554446e-08 -6.3183794844e-06)
(6.9046204825e-08 -7.1380271161e-08 -6.07200736288e-06)
(6.69354122183e-08 -6.49187421858e-08 -5.84774313692e-06)
(6.54816831694e-08 -5.53016810375e-08 -5.65316537865e-06)
(6.45186725682e-08 -4.34396493657e-08 -5.49456905179e-06)
(6.35031497213e-08 -3.03675089951e-08 -5.37809636995e-06)
(6.23093921774e-08 -1.70441584652e-08 -5.30729088507e-06)
(5.97421407477e-08 -4.7598305696e-09 -5.27126065551e-06)
(1.6823807927e-08 7.30708022792e-08 -6.07614792571e-06)
(3.90277085917e-08 7.19265943748e-08 -6.00443263983e-06)
(6.31798381549e-08 6.28067514675e-08 -5.90529720228e-06)
(8.34599000847e-08 5.18891037034e-08 -5.76239379248e-06)
(9.9228448503e-08 3.87421680161e-08 -5.58859703352e-06)
(1.10984216666e-07 2.53400154024e-08 -5.39302958597e-06)
(1.18825318755e-07 1.35037152837e-08 -5.18539417739e-06)
(1.23407455679e-07 3.97466120469e-09 -4.97663193077e-06)
(1.25467772593e-07 -2.75967349053e-09 -4.77706737057e-06)
(1.26440541024e-07 -6.48280067036e-09 -4.59436430637e-06)
(1.27364535532e-07 -7.48456851312e-09 -4.43465633663e-06)
(1.27960569592e-07 -6.5004151451e-09 -4.30450963116e-06)
(1.27684585391e-07 -4.41987968467e-09 -4.21058487945e-06)
(1.27174232033e-07 -1.89779566882e-09 -4.15512501289e-06)
(1.264091629e-07 1.41169399553e-10 -4.12497784874e-06)
(2.02872483889e-08 1.66048998499e-07 -3.97360865463e-06)
(4.99497130862e-08 1.50946985325e-07 -3.95259004353e-06)
(7.75311780357e-08 1.42507927764e-07 -3.87484632014e-06)
(1.00576249606e-07 1.29040929785e-07 -3.78012053862e-06)
(1.20105767845e-07 1.12864406229e-07 -3.66559409533e-06)
(1.34584359169e-07 9.5420343644e-08 -3.53505864742e-06)
(1.45249241068e-07 7.82240617516e-08 -3.3964576568e-06)
(1.52166799831e-07 6.22241812712e-08 -3.25663427692e-06)
(1.55963652464e-07 4.81417200838e-08 -3.12245958792e-06)
(1.57907877785e-07 3.64649437845e-08 -2.99891864121e-06)
(1.58949595663e-07 2.71755865342e-08 -2.89070005404e-06)
(1.59051803974e-07 1.97562418855e-08 -2.80340682327e-06)
(1.5839900663e-07 1.35746815793e-08 -2.74189678139e-06)
(1.58615061575e-07 8.4574173334e-09 -2.70555023113e-06)
(1.57683075605e-07 3.53289779886e-09 -2.68107913682e-06)
(1.45178031439e-08 1.35833082507e-07 -1.39075246445e-06)
(3.22424492369e-08 1.33558587301e-07 -1.37258723495e-06)
(5.19926676727e-08 1.25403495637e-07 -1.34770631579e-06)
(6.94822051793e-08 1.15221194627e-07 -1.31544764509e-06)
(8.30858153623e-08 1.02769489863e-07 -1.2747083509e-06)
(9.36796893074e-08 8.91155162836e-08 -1.2288450319e-06)
(1.01017942096e-07 7.5275247883e-08 -1.1796646481e-06)
(1.05532179754e-07 6.19417964887e-08 -1.12987434379e-06)
(1.07684719941e-07 4.96632245223e-08 -1.08195490931e-06)
(1.08318680417e-07 3.88258043114e-08 -1.03768928793e-06)
(1.08041480457e-07 2.95137075298e-08 -9.99127802438e-07)
(1.07029452975e-07 2.15001736417e-08 -9.68752718705e-07)
(1.06305775527e-07 1.45479449469e-08 -9.48154473137e-07)
(1.0482522718e-07 8.77832103256e-09 -9.35953463892e-07)
(1.06090562805e-07 3.43070927447e-09 -9.26533264172e-07)
(-1.52241745962e-08 -7.13896452914e-07 -1.10837690028e-05)
(-4.58082849583e-08 -7.18885566146e-07 -1.1012719983e-05)
(-7.88309550406e-08 -7.12601070294e-07 -1.08567165313e-05)
(-1.14895036876e-07 -7.00345123664e-07 -1.06350084103e-05)
(-1.5410312247e-07 -6.78776322292e-07 -1.03656263219e-05)
(-1.95639698714e-07 -6.46789849285e-07 -1.00613946538e-05)
(-2.37971174251e-07 -6.05478030246e-07 -9.73450622122e-06)
(-2.79763421606e-07 -5.56242912213e-07 -9.39814407477e-06)
(-3.20143595858e-07 -4.99835381286e-07 -9.07051146866e-06)
(-3.58415929783e-07 -4.36685066702e-07 -8.77118594584e-06)
(-3.93696659378e-07 -3.6731242502e-07 -8.5157633666e-06)
(-4.24709065103e-07 -2.92418329441e-07 -8.31306819627e-06)
(-4.49912236572e-07 -2.12811282181e-07 -8.16579192609e-06)
(-4.67599851165e-07 -1.29428502457e-07 -8.07301227619e-06)
(-4.73786928563e-07 -4.33610817352e-08 -8.03241192895e-06)
(-1.35930115398e-08 -6.45701843461e-07 -1.0993163272e-05)
(-4.17856506316e-08 -6.40696363339e-07 -1.09184568316e-05)
(-7.07235442125e-08 -6.38660397351e-07 -1.07580894537e-05)
(-1.02700028075e-07 -6.3122765168e-07 -1.05411754313e-05)
(-1.38000387049e-07 -6.15054837451e-07 -1.02729533527e-05)
(-1.75721824481e-07 -5.88272340927e-07 -9.96937758732e-06)
(-2.14173070404e-07 -5.51636736087e-07 -9.64288310038e-06)
(-2.51901292112e-07 -5.06665344897e-07 -9.30706783026e-06)
(-2.87934929593e-07 -4.5435737649e-07 -8.9805621958e-06)
(-3.21506405296e-07 -3.95452503598e-07 -8.68293254415e-06)
(-3.51700657028e-07 -3.30841930267e-07 -8.42953242556e-06)
(-3.77304518831e-07 -2.61671523546e-07 -8.22870466651e-06)
(-3.97151271929e-07 -1.89187031064e-07 -8.08286256891e-06)
(-4.10919924099e-07 -1.14506775735e-07 -7.99120319793e-06)
(-4.163763635e-07 -3.82863225851e-08 -7.95064711475e-06)
(-1.00979227192e-08 -5.47527582686e-07 -1.07825103177e-05)
(-3.06905163261e-08 -5.53052301157e-07 -1.0687926559e-05)
(-5.43304885954e-08 -5.536825249e-07 -1.05400458915e-05)
(-8.1595521123e-08 -5.50298190543e-07 -1.03275978155e-05)
(-1.1252986305e-07 -5.39118994028e-07 -1.00637689091e-05)
(-1.45962586407e-07 -5.17756614547e-07 -9.76253738206e-06)
(-1.80047670413e-07 -4.86657518734e-07 -9.43824042122e-06)
(-2.13260440039e-07 -4.47249675132e-07 -9.10554905087e-06)
(-2.44600069284e-07 -4.00613655271e-07 -8.78302339644e-06)
(-2.7330762098e-07 -3.47683031357e-07 -8.48945670507e-06)
(-2.98521306121e-07 -2.89612094274e-07 -8.23952855066e-06)
(-3.19189095139e-07 -2.27843535626e-07 -8.04108645855e-06)
(-3.34388218957e-07 -1.63845584494e-07 -7.89640921145e-06)
(-3.43544629596e-07 -9.86874369852e-08 -7.80485577549e-06)
(-3.46621040929e-07 -3.28882767939e-08 -7.76212022325e-06)
(-7.34192938404e-09 -4.50458077286e-07 -1.03645167612e-05)
(-2.37370953869e-08 -4.49504037571e-07 -1.02910363754e-05)
(-4.14573696955e-08 -4.52218044894e-07 -1.01489894256e-05)
(-6.21736673947e-08 -4.521724612e-07 -9.94587264063e-06)
(-8.62755173113e-08 -4.45909599947e-07 -9.68995715481e-06)
(-1.1282526801e-07 -4.3082164011e-07 -9.39478528533e-06)
(-1.40201915933e-07 -4.06859107196e-07 -9.07669426988e-06)
(-1.6699814603e-07 -3.7508920605e-07 -8.75153931822e-06)
(-1.92277725356e-07 -3.36457289027e-07 -8.43747757882e-06)
(-2.15274591199e-07 -2.91914907475e-07 -8.15198348581e-06)
(-2.35132913897e-07 -2.42726364921e-07 -7.90855307198e-06)
(-2.50954458398e-07 -1.90467802451e-07 -7.71434798544e-06)
(-2.62523277747e-07 -1.36629040963e-07 -7.57160387455e-06)
(-2.69685443322e-07 -8.20738927319e-08 -7.48026682922e-06)
(-2.72203354289e-07 -2.72975447889e-08 -7.43554658453e-06)
(-3.3095751209e-09 -3.42149829242e-07 -9.78115674466e-06)
(-1.2408100198e-08 -3.42651539753e-07 -9.70479158121e-06)
(-2.29110388091e-08 -3.45361168207e-07 -9.56374170402e-06)
(-3.59863265876e-08 -3.47537828462e-07 -9.36466362468e-06)
(-5.24423899643e-08 -3.45226608085e-07 -9.11490824243e-06)
(-7.14882214081e-08 -3.35991703179e-07 -8.82768589399e-06)
(-9.16897653402e-08 -3.19329234438e-07 -8.5196672996e-06)
(-1.11850434571e-07 -2.95889078702e-07 -8.20693010196e-06)
(-1.31135584151e-07 -2.66340865446e-07 -7.90647495499e-06)
(-1.48724507893e-07 -2.31457994196e-07 -7.63371352261e-06)
(-1.6376042322e-07 -1.92410730206e-07 -7.40040120187e-06)
(-1.7537085783e-07 -1.5072330886e-07 -7.21301118685e-06)
(-1.83437977845e-07 -1.07788385791e-07 -7.07411177473e-06)
(-1.88629001904e-07 -6.43570069493e-08 -6.98456930631e-06)
(-1.90715177048e-07 -2.12161172395e-08 -6.94061909888e-06)
(-6.85148672339e-11 -2.35559090736e-07 -8.92960309252e-06)
(-2.37500632753e-09 -2.39340934771e-07 -8.85910389694e-06)
(-5.38440740878e-09 -2.39202138298e-07 -8.71583789768e-06)
(-1.15780038857e-08 -2.41248149653e-07 -8.52664244765e-06)
(-2.02148873336e-08 -2.41065162878e-07 -8.28902921149e-06)
(-3.12844599446e-08 -2.3634630445e-07 -8.01811185819e-06)
(-4.36441334887e-08 -2.26270113868e-07 -7.72917728618e-06)
(-5.65070272342e-08 -2.11055198108e-07 -7.43745575557e-06)
(-6.92341418885e-08 -1.90993743918e-07 -7.15828837841e-06)
(-8.09061292117e-08 -1.66527514815e-07 -6.90462756522e-06)
(-9.07303594535e-08 -1.3857813594e-07 -6.6863306297e-06)
(-9.82463433093e-08 -1.08469719769e-07 -6.50967705585e-06)
(-1.0339734305e-07 -7.73649620934e-08 -6.37840549073e-06)
(-1.06997887369e-07 -4.58376046509e-08 -6.29439988275e-06)
(-1.09093065212e-07 -1.48815196838e-08 -6.25510948964e-06)
(4.70024606306e-09 -1.29619795288e-07 -7.73605966871e-06)
(1.03247748002e-08 -1.33533540419e-07 -7.68121066274e-06)
(1.34027548728e-08 -1.36068723281e-07 -7.55443754312e-06)
(1.47610208683e-08 -1.38726240309e-07 -7.38201190166e-06)
(1.31148919213e-08 -1.41165109558e-07 -7.16968531612e-06)
(9.16944205488e-09 -1.40910704358e-07 -6.92784503157e-06)
(3.72915405782e-09 -1.37073720832e-07 -6.67081936048e-06)
(-2.67305725131e-09 -1.29611409757e-07 -6.41200172301e-06)
(-9.55539541968e-09 -1.18561289742e-07 -6.16454767408e-06)
(-1.58625645326e-08 -1.04094539607e-07 -5.93878652615e-06)
(-2.08528236368e-08 -8.69032565206e-08 -5.7428883393e-06)
(-2.46866417813e-08 -6.81083916151e-08 -5.58346213251e-06)
(-2.78780495023e-08 -4.85894045005e-08 -5.46578002131e-06)
(-3.10964629421e-08 -2.85989569033e-08 -5.39216637299e-06)
(-3.35116113859e-08 -9.1044911272e-09 -5.35960228489e-06)
(8.25979229555e-09 -3.53444990919e-08 -6.16568709643e-06)
(1.80518327404e-08 -3.26193053214e-08 -6.09495278315e-06)
(2.92959653742e-08 -3.77043707403e-08 -5.9957225793e-06)
(3.80680929493e-08 -4.25164517628e-08 -5.85357569716e-06)
(4.36033407165e-08 -4.81683241016e-08 -5.67986199902e-06)
(4.67260235157e-08 -5.2987215291e-08 -5.48422396069e-06)
(4.74615127033e-08 -5.57304447794e-08 -5.27634544192e-06)
(4.63108095112e-08 -5.60524681145e-08 -5.06711511418e-06)
(4.37648641174e-08 -5.3710268709e-08 -4.86670800729e-06)
(4.10714172434e-08 -4.86448290338e-08 -4.68280211507e-06)
(3.90319150843e-08 -4.1376640399e-08 -4.52222782307e-06)
(3.73147970767e-08 -3.28802013592e-08 -4.39172668113e-06)
(3.51121452882e-08 -2.37441428543e-08 -4.29686231766e-06)
(3.27075306899e-08 -1.37890407079e-08 -4.23853223868e-06)
(3.27035095294e-08 -4.13203566549e-09 -4.2114694554e-06)
(1.13059257348e-08 5.83822416501e-08 -4.05902743374e-06)
(2.87191332859e-08 4.79379214822e-08 -4.03473989254e-06)
(4.35190731386e-08 4.38719738294e-08 -3.95850462566e-06)
(5.5245667573e-08 3.69006479645e-08 -3.86304612214e-06)
(6.51953931428e-08 2.86708287845e-08 -3.74803554009e-06)
(7.19763806611e-08 2.01014466795e-08 -3.61701715595e-06)
(7.66325773265e-08 1.22036549289e-08 -3.47770691517e-06)
(7.90624290506e-08 5.50622542229e-09 -3.33698006087e-06)
(7.96004844832e-08 4.78879579685e-10 -3.20155596548e-06)
(7.93005348123e-08 -2.56589141785e-09 -3.07653168348e-06)
(7.87976584041e-08 -3.88384391595e-09 -2.9672120834e-06)
(7.79137373821e-08 -4.14978653251e-09 -2.87906869374e-06)
(7.61524220119e-08 -3.5472384517e-09 -2.81587164964e-06)
(7.61674506859e-08 -1.59626367466e-09 -2.77603466514e-06)
(7.59508506194e-08 1.53972081077e-10 -2.75520474399e-06)
(8.05883347641e-09 6.67633004023e-08 -1.44190011048e-06)
(1.81311309918e-08 6.60869408057e-08 -1.42545715058e-06)
(2.93402163042e-08 6.16932130757e-08 -1.39970945676e-06)
(3.93710765441e-08 5.6096124759e-08 -1.36673576733e-06)
(4.70207328745e-08 4.92713065819e-08 -1.32528604794e-06)
(5.29859711336e-08 4.18376214465e-08 -1.27840962268e-06)
(5.70648534745e-08 3.44271498494e-08 -1.22809830366e-06)
(5.94632633864e-08 2.74276066284e-08 -1.17703724892e-06)
(6.04231042086e-08 2.11861155017e-08 -1.12768602574e-06)
(6.05917453819e-08 1.59561779026e-08 -1.08195510882e-06)
(6.02881338912e-08 1.16852188277e-08 -1.04220355145e-06)
(5.948834153e-08 8.11165836504e-09 -1.01067126633e-06)
(5.89946894126e-08 5.30814577907e-09 -9.88420020101e-07)
(5.83431043771e-08 3.54799092197e-09 -9.73719222981e-07)
(5.89838108623e-08 1.71836072227e-09 -9.68654526715e-07)
(-1.9916031412e-08 -7.84634602081e-07 -1.12311181629e-05)
(-5.93886228702e-08 -7.87004006308e-07 -1.11494801248e-05)
(-1.00926385759e-07 -7.76992088757e-07 -1.09948243602e-05)
(-1.44649312468e-07 -7.59093460052e-07 -1.07714869791e-05)
(-1.90762610286e-07 -7.31495083874e-07 -1.0499502513e-05)
(-2.38212039283e-07 -6.93532255691e-07 -1.01935642041e-05)
(-2.8534813147e-07 -6.46469717041e-07 -9.86621429723e-06)
(-3.30967424207e-07 -5.91844652464e-07 -9.53048614898e-06)
(-3.74436534829e-07 -5.30554078762e-07 -9.20438706067e-06)
(-4.15357657795e-07 -4.63012838985e-07 -8.90711319323e-06)
(-4.53096895779e-07 -3.89505159411e-07 -8.654099285e-06)
(-4.86417124876e-07 -3.10405695567e-07 -8.45408120445e-06)
(-5.13494940379e-07 -2.26230477134e-07 -8.30936599314e-06)
(-5.3267784459e-07 -1.37709850233e-07 -8.21817220572e-06)
(-5.40423795156e-07 -4.60418290968e-08 -8.1756547379e-06)
(-1.80201003111e-08 -7.00772978909e-07 -1.11174849274e-05)
(-5.47357344908e-08 -6.95303353055e-07 -1.10551056111e-05)
(-9.14906846901e-08 -6.89586857464e-07 -1.08947677225e-05)
(-1.30497618587e-07 -6.77354873413e-07 -1.06761119822e-05)
(-1.72039136789e-07 -6.56087972326e-07 -1.0405829734e-05)
(-2.14976593635e-07 -6.24248455548e-07 -1.01008665549e-05)
(-2.57544759132e-07 -5.82747886828e-07 -9.77400571569e-06)
(-2.98413962639e-07 -5.33226091616e-07 -9.43879288336e-06)
(-3.36828885823e-07 -4.76822647384e-07 -9.11376158768e-06)
(-3.72324160489e-07 -4.14305340458e-07 -8.81812592854e-06)
(-4.04231616233e-07 -3.46408475609e-07 -8.56721892107e-06)
(-4.31411275075e-07 -2.74047194531e-07 -8.36932099881e-06)
(-4.52442217861e-07 -1.9825264212e-07 -8.22602794109e-06)
(-4.67227769803e-07 -1.19955695901e-07 -8.13526245615e-06)
(-4.74278794999e-07 -3.99665680302e-08 -8.09283790198e-06)
(-1.49105509364e-08 -6.03821760607e-07 -1.09213170978e-05)
(-4.39571280836e-08 -6.06427309899e-07 -1.08290966048e-05)
(-7.52522163377e-08 -6.04184983537e-07 -1.06779435769e-05)
(-1.09662375375e-07 -5.96106489698e-07 -1.04640771194e-05)
(-1.47069578621e-07 -5.79773293255e-07 -1.01977526596e-05)
(-1.8608267956e-07 -5.53211266037e-07 -9.89459487403e-06)
(-2.24676995798e-07 -5.17051951641e-07 -9.5693493978e-06)
(-2.61340324257e-07 -4.72861730552e-07 -9.23684641359e-06)
(-2.95222569329e-07 -4.21885617811e-07 -8.91553089926e-06)
(-3.25850201942e-07 -3.65133713932e-07 -8.62374784445e-06)
(-3.52610227298e-07 -3.03671373124e-07 -8.37612442105e-06)
(-3.74560050705e-07 -2.38764925023e-07 -8.18039166449e-06)
(-3.9050091819e-07 -1.71664117139e-07 -8.03776579363e-06)
(-4.00027089462e-07 -1.03280163131e-07 -7.94620363386e-06)
(-4.03951811907e-07 -3.42708036801e-08 -7.90308270945e-06)
(-1.23655068858e-08 -5.09616404706e-07 -1.05048068574e-05)
(-3.72911727495e-08 -5.08225416021e-07 -1.04289834633e-05)
(-6.34756749016e-08 -5.08253826438e-07 -1.02855776084e-05)
(-9.22069449616e-08 -5.03619346246e-07 -1.00810677424e-05)
(-1.23749353007e-07 -4.92040606986e-07 -9.82332433386e-06)
(-1.56858281311e-07 -4.71394922362e-07 -9.52690970105e-06)
(-1.89644943973e-07 -4.4188672516e-07 -9.20834522811e-06)
(-2.20657287333e-07 -4.04768007803e-07 -8.88360582221e-06)