/*--------------------------------*- C++ -*----------------------------------*\
| =========                 |                                                 |
| \\      /  F ield         | foam-extend: Open Source CFD                    |
|  \\    /   O peration     | Version:     4.1                                |
|   \\  /    A nd           | Web:         http://www.foam-extend.org         |
|    \\/     M anipulation  |                                                 |
\*---------------------------------------------------------------------------*/
FoamFile
{
    version     2.0;
    format      ascii;
    class       vectorField;
    location    "1";
    object      solidsCellD_iteration5;
}
// * * * * * * * * * * * * * * * * * * * * * * * * * * * * * * * * * * * * * //


1050
(
(5.32291180872e-08 -1.56872259832e-07 -2.4521917885e-05)
(1.54487630996e-07 -1.66982446936e-07 -2.43337414678e-05)
(2.51374511204e-07 -1.91169169699e-07 -2.39628974333e-05)
(3.37455385531e-07 -2.23362412898e-07 -2.34391487873e-05)
(4.10417703776e-07 -2.55666155125e-07 -2.27942968373e-05)
(4.69340934315e-07 -2.83723700903e-07 -2.20670461366e-05)
(5.14168314133e-07 -3.04994321654e-07 -2.12913546259e-05)
(5.43924306118e-07 -3.16231275745e-07 -2.05000559417e-05)
(5.58573851876e-07 -3.13510990205e-07 -1.97320694913e-05)
(5.60991387776e-07 -2.94163056584e-07 -1.9027787161e-05)
(5.56108396404e-07 -2.58448881796e-07 -1.84203656714e-05)
(5.48947200434e-07 -2.09536730767e-07 -1.79312236466e-05)
(5.42929113131e-07 -1.52120195112e-07 -1.75698343284e-05)
(5.3949371902e-07 -9.11271658988e-08 -1.73364434822e-05)
(5.38223601654e-07 -2.97934750509e-08 -1.72263447781e-05)
(5.7754639249e-08 -7.21082529988e-09 -2.42199003033e-05)
(1.66472496157e-07 -2.0532744251e-08 -2.40118975446e-05)
(2.7081285836e-07 -5.29224723561e-08 -2.36359959236e-05)
(3.63393925122e-07 -9.43021552804e-08 -2.31098128871e-05)
(4.42119225877e-07 -1.35615691092e-07 -2.24621789206e-05)
(5.05987273546e-07 -1.71508301721e-07 -2.17338198862e-05)
(5.55616469827e-07 -1.99559707066e-07 -2.09582504875e-05)
(5.90662247237e-07 -2.16434352263e-07 -2.01683721085e-05)
(6.12007374918e-07 -2.18455061825e-07 -1.94045103407e-05)
(6.23319769146e-07 -2.04041995159e-07 -1.87071222706e-05)
(6.29733778281e-07 -1.75129874304e-07 -1.81079980893e-05)
(6.35604364148e-07 -1.36591186292e-07 -1.76267595821e-05)
(6.4264040681e-07 -9.43025249557e-08 -1.72713722321e-05)
(6.49930166028e-07 -5.33636835265e-08 -1.70414801406e-05)
(6.5447681597e-07 -1.62151059029e-08 -1.69340507918e-05)
(6.81910347814e-08 2.29918928874e-07 -2.36140488643e-05)
(1.93295212533e-07 2.12049103439e-07 -2.34132564591e-05)
(3.1247323985e-07 1.72966099401e-07 -2.30460479728e-05)
(4.20223814155e-07 1.22183627903e-07 -2.2525059723e-05)
(5.1235858267e-07 6.95589229704e-08 -2.18813926901e-05)
(5.88311336948e-07 2.15367201616e-08 -2.11559857541e-05)
(6.48979793679e-07 -1.92688413731e-08 -2.03851696443e-05)
(6.94688402018e-07 -4.95146925109e-08 -1.96029938966e-05)
(7.27199612209e-07 -6.57923672663e-08 -1.88495232856e-05)
(7.50712963124e-07 -6.72300417945e-08 -1.81633627947e-05)
(7.70188864719e-07 -5.66129573479e-08 -1.75742688415e-05)
(7.89102740214e-07 -3.94447169941e-08 -1.71004331919e-05)
(8.07847593205e-07 -2.16787278638e-08 -1.67494301475e-05)
(8.24720448695e-07 -8.40083710172e-09 -1.65211206075e-05)
(8.34103585934e-07 -7.72566484494e-10 -1.64110782316e-05)
(7.93458102475e-08 5.47184553333e-07 -2.26692897033e-05)
(2.25496089502e-07 5.27278193815e-07 -2.24764345155e-05)
(3.69017988258e-07 4.81952235265e-07 -2.21117074214e-05)
(4.9927435928e-07 4.19629731902e-07 -2.16008629917e-05)
(6.12460711793e-07 3.51162776011e-07 -2.09652985795e-05)
(7.07150426123e-07 2.84454311782e-07 -2.02491552333e-05)
(7.84448645851e-07 2.23065843152e-07 -1.94913905608e-05)
(8.45374868953e-07 1.70694551037e-07 -1.87263039429e-05)
(8.92394402421e-07 1.30645442354e-07 -1.79922360232e-05)
(9.29957925366e-07 1.0349365198e-07 -1.7324826652e-05)
(9.62721936299e-07 8.6302008741e-08 -1.67513243079e-05)
(9.93408542944e-07 7.3698721521e-08 -1.62886232737e-05)
(1.02133582719e-06 6.03339925262e-08 -1.59445973202e-05)
(1.04451589945e-06 4.1298339998e-08 -1.57205321328e-05)
(1.0569781763e-06 1.60398110942e-08 -1.56093814599e-05)
(9.64395787812e-08 9.17848369813e-07 -2.12821034245e-05)
(2.73179832531e-07 8.95152799215e-07 -2.10793884002e-05)
(4.47382479118e-07 8.4279470895e-07 -2.07262911928e-05)
(6.05529610988e-07 7.66738605714e-07 -2.02336978378e-05)
(7.43748021931e-07 6.78996962753e-07 -1.96199979008e-05)
(8.60229730644e-07 5.88778399123e-07 -1.89305509092e-05)
(9.56462416698e-07 5.01077280694e-07 -1.8203964855e-05)
(1.03412878444e-06 4.20187415984e-07 -1.74731462781e-05)
(1.09618667203e-06 3.49510434434e-07 -1.67736447887e-05)
(1.14713046961e-06 2.89796967254e-07 -1.61376282508e-05)
(1.19132957536e-06 2.38666353672e-07 -1.55897673813e-05)
(1.23112983081e-06 1.91500501429e-07 -1.51457894002e-05)
(1.26548725002e-06 1.43765814727e-07 -1.4813067012e-05)
(1.29253917322e-06 9.10941081018e-08 -1.45939591113e-05)
(1.30578489129e-06 3.27885979649e-08 -1.4481280319e-05)
(1.16890486462e-07 1.32230001364e-06 -1.93161815341e-05)
(3.28281836642e-07 1.29567212464e-06 -1.91197732332e-05)
(5.36654712677e-07 1.23232441708e-06 -1.87805171237e-05)
(7.25039392278e-07 1.13962996213e-06 -1.83179107547e-05)
(8.90166325399e-07 1.02885703773e-06 -1.7743571165e-05)
(1.02960368438e-06 9.10984500726e-07 -1.71013248363e-05)
(1.14519976438e-06 7.92420175256e-07 -1.64269599035e-05)
(1.23911048392e-06 6.78327144774e-07 -1.57506960095e-05)
(1.31465105125e-06 5.72495045264e-07 -1.51047101127e-05)
(1.37634763993e-06 4.76242657366e-07 -1.45172600721e-05)
(1.42846324078e-06 3.8822541797e-07 -1.40098803711e-05)
(1.47329035603e-06 3.05004972215e-07 -1.35971880978e-05)
(1.50992322886e-06 2.2281357055e-07 -1.3286091446e-05)
(1.53732815985e-06 1.37644526928e-07 -1.30786772321e-05)
(1.54895709848e-06 4.83596657211e-08 -1.29683876288e-05)
(1.3857885782e-07 1.71755957573e-06 -1.66350528893e-05)
(3.85663918955e-07 1.68717283318e-06 -1.64588933061e-05)
(6.28527030844e-07 1.60889941415e-06 -1.61520817605e-05)
(8.46552307741e-07 1.49674725902e-06 -1.57333556494e-05)
(1.0357381616e-06 1.36104341875e-06 -1.52235198741e-05)
(1.19475607461e-06 1.21376307867e-06 -1.4656569768e-05)
(1.32558318177e-06 1.06283904107e-06 -1.40630789785e-05)
(1.43093837998e-06 9.1444390103e-07 -1.34691996407e-05)
(1.51454836744e-06 7.73040639264e-07 -1.29027365034e-05)
(1.58112353835e-06 6.40751201844e-07 -1.23873670582e-05)
(1.63514649894e-06 5.17407183571e-07 -1.19404560555e-05)
(1.67929043079e-06 4.00881613525e-07 -1.15744475381e-05)
(1.71315645023e-06 2.88199481336e-07 -1.12960953794e-05)
(1.73697191622e-06 1.75459386652e-07 -1.11078215863e-05)
(1.74480273321e-06 6.09134383178e-08 -1.10045930572e-05)
(1.57456108189e-07 2.01965562928e-06 -1.31163670059e-05)
(4.30398291805e-07 1.98138050313e-06 -1.29501145057e-05)
(6.98218710638e-07 1.89118645235e-06 -1.26900436653e-05)
(9.35069161422e-07 1.76120881036e-06 -1.23523610996e-05)
(1.13826776251e-06 1.60372924048e-06 -1.19401910951e-05)
(1.30655196124e-06 1.43153101848e-06 -1.14843758726e-05)
(1.44235196161e-06 1.2536521344e-06 -1.10078581911e-05)
(1.54897379654e-06 1.07725100059e-06 -1.05306932354e-05)
(1.6307478041e-06 9.07626453133e-07 -1.00754126991e-05)
(1.6927914801e-06 7.47740105576e-07 -9.66086305447e-06)
(1.74012275687e-06 5.98385486116e-07 -9.30007664219e-06)
(1.77623161255e-06 4.58430016199e-07 -9.00224693958e-06)
(1.80176314412e-06 3.25551705613e-07 -8.77332381125e-06)
(1.81855186288e-06 1.95952139433e-07 -8.61674205683e-06)
(1.8219588107e-06 6.75133005447e-08 -8.53012731372e-06)
(1.57242379789e-07 2.03884310605e-06 -8.58239308149e-06)
(4.26557861549e-07 1.98890657424e-06 -8.47837139379e-06)
(6.87095992924e-07 1.89362052494e-06 -8.29780231834e-06)
(9.12502796694e-07 1.759850259e-06 -8.06502256674e-06)
(1.10245427811e-06 1.5988509048e-06 -7.78992559914e-06)
(1.25570726065e-06 1.42295985865e-06 -7.48627668749e-06)
(1.37547030072e-06 1.24124661635e-06 -7.16907625406e-06)
(1.46524265359e-06 1.06111232945e-06 -6.85152989818e-06)
(1.52984879544e-06 8.8812871916e-07 -6.54821954999e-06)
(1.57465657875e-06 7.25721224664e-07 -6.27196513766e-06)
(1.60506050491e-06 5.75185270889e-07 -6.03138261228e-06)
(1.62529059203e-06 4.35867500856e-07 -5.83222496401e-06)
(1.63712530829e-06 3.06039907453e-07 -5.67872591941e-06)
(1.64400159839e-06 1.81898848886e-07 -5.57483861349e-06)
(1.6417937257e-06 6.20990780733e-08 -5.51825655906e-06)
(1.0925377794e-07 1.39427796523e-06 -3.1004918423e-06)
(2.85850612783e-07 1.3513163358e-06 -3.05230013012e-06)
(4.56826051832e-07 1.27757406893e-06 -2.98454743555e-06)
(6.02814136475e-07 1.17855130188e-06 -2.90207339353e-06)
(7.21413431049e-07 1.06178481264e-06 -2.80120740661e-06)
(8.13011635496e-07 9.35543239309e-07 -2.69033948224e-06)
(8.79539611183e-07 8.06709857831e-07 -2.5747469655e-06)
(9.24313560457e-07 6.80696217767e-07 -2.45891392251e-06)
(9.51417252364e-07 5.61624948788e-07 -2.34853202528e-06)
(9.65293197986e-07 4.51946190917e-07 -2.24857070036e-06)
(9.70339020345e-07 3.52518479213e-07 -2.16221775482e-06)
(9.7026283897e-07 2.62858370502e-07 -2.0914925162e-06)
(9.67345637027e-07 1.81749589633e-07 -2.0381826486e-06)
(9.6399586804e-07 1.06500666854e-07 -2.00462139519e-06)
(9.6039763102e-07 3.61676541336e-08 -1.98783535615e-06)
(2.77202013152e-08 -3.80036615813e-07 -2.46088886506e-05)
(8.00985148422e-08 -3.8359302138e-07 -2.44288682116e-05)
(1.29827117248e-07 -3.90900357196e-07 -2.40602193151e-05)
(1.73752047243e-07 -4.01291513872e-07 -2.35378661474e-05)
(2.09478128456e-07 -4.08860395435e-07 -2.28947846776e-05)
(2.36356735053e-07 -4.10663404796e-07 -2.21689966925e-05)
(2.54303457175e-07 -4.0514844338e-07 -2.13936415978e-05)
(2.62982305403e-07 -3.9066002288e-07 -2.06008668886e-05)
(2.6308933125e-07 -3.65395784605e-07 -1.98303870403e-05)
(2.57237653739e-07 -3.28306060769e-07 -1.91233548145e-05)
(2.49045770685e-07 -2.80048868397e-07 -1.85133644479e-05)
(2.41863121122e-07 -2.23073687781e-07 -1.80221488795e-05)
(2.37647697121e-07 -1.60754361169e-07 -1.76591597602e-05)
(2.37291256816e-07 -9.69267266595e-08 -1.74244280146e-05)
(2.42236951181e-07 -3.20483175858e-08 -1.73140924055e-05)
(2.98529977101e-08 -2.65372307433e-07 -2.4315575359e-05)
(8.75586784314e-08 -2.67635777239e-07 -2.41128934577e-05)
(1.44221927504e-07 -2.79412497944e-07 -2.3735786839e-05)
(1.93287615724e-07 -2.95581767486e-07 -2.32098476546e-05)
(2.3380580581e-07 -3.08913266392e-07 -2.25611293883e-05)
(2.64982698304e-07 -3.15850430145e-07 -2.18315770105e-05)
(2.87330714858e-07 -3.14910961321e-07 -2.10543926926e-05)
(3.00964414982e-07 -3.04509150413e-07 -2.02621901806e-05)
(3.07142774432e-07 -2.83137362167e-07 -1.94958905186e-05)
(3.08853637344e-07 -2.5057562376e-07 -1.87962761902e-05)
(3.0971568064e-07 -2.08661787978e-07 -1.81953491521e-05)
(3.12549204518e-07 -1.61054589686e-07 -1.77128676006e-05)
(3.17989945626e-07 -1.1199946461e-07 -1.73568090569e-05)
(3.25445737708e-07 -6.51967284364e-08 -1.71266368432e-05)
(3.3419684459e-07 -2.08882605307e-08 -1.70189836366e-05)
(3.77792434893e-08 -9.06465502924e-08 -2.37293579287e-05)
(1.07715517295e-07 -9.41852279467e-08 -2.35239541557e-05)
(1.73757522851e-07 -1.11636235691e-07 -2.31578015657e-05)
(2.32750842164e-07 -1.35103173005e-07 -2.26373188445e-05)
(2.81906068416e-07 -1.57435792834e-07 -2.19921598778e-05)
(3.20943969618e-07 -1.73874880538e-07 -2.12651274667e-05)
(3.50870827907e-07 -1.82667979857e-07 -2.04921555023e-05)
(3.72302390198e-07 -1.82151945458e-07 -1.97070841437e-05)
(3.86972389542e-07 -1.71119030009e-07 -1.89505355869e-05)
(3.97962187241e-07 -1.50015350661e-07 -1.82615043718e-05)
(4.08554959542e-07 -1.21403741566e-07 -1.76701470751e-05)
(4.20855053408e-07 -8.94842447747e-08 -1.71949068849e-05)
(4.34459754263e-07 -5.86198776706e-08 -1.68434900137e-05)
(4.48633972113e-07 -3.21009283538e-08 -1.66155760712e-05)
(4.59726536316e-07 -9.70820717503e-09 -1.65058921555e-05)
(4.57542968972e-08 1.45611789276e-07 -2.2787119679e-05)
(1.29656916244e-07 1.38562579133e-07 -2.25956183136e-05)
(2.11926706144e-07 1.15117059736e-07 -2.22336405786e-05)
(2.86270024876e-07 8.22934118227e-08 -2.17233681752e-05)
(3.49561544328e-07 4.74724118291e-08 -2.10868827527e-05)
(4.01510682403e-07 1.66310365111e-08 -2.03694333622e-05)
(4.4319990745e-07 -7.84750850028e-09 -1.96096398582e-05)
(4.75630844373e-07 -2.39615168335e-08 -1.88416821825e-05)
(5.00854524877e-07 -3.05475108943e-08 -1.810444021e-05)
(5.21952114026e-07 -2.82617606987e-08 -1.7433952933e-05)
(5.41917202285e-07 -1.98027951466e-08 -1.68579579586e-05)
(5.6233171523e-07 -9.353074494e-09 -1.63936987488e-05)
(5.81879334513e-07 -8.97071615573e-10 -1.6048980437e-05)
(5.99860849553e-07 2.86189154736e-09 -1.58248904224e-05)
(6.11562402577e-07 1.96846626073e-09 -1.57136671775e-05)
(5.70142079306e-08 4.1825159387e-07 -2.1403136355e-05)
(1.62168782949e-07 4.07633970412e-07 -2.12021151972e-05)
(2.66100805025e-07 3.78645761019e-07 -2.08505606153e-05)
(3.59683807441e-07 3.34871133477e-07 -2.03575343446e-05)
(4.40217257732e-07 2.85433171949e-07 -1.97426963485e-05)
(5.07418935904e-07 2.36930178186e-07 -1.90518019533e-05)
(5.62497966255e-07 1.92672906286e-07 -1.83231704374e-05)
(6.06799816664e-07 1.55156961232e-07 -1.75896847342e-05)
(6.42578859827e-07 1.2577005151e-07 -1.68874071739e-05)
(6.72859918686e-07 1.04115903038e-07 -1.62487431949e-05)
(7.00437934052e-07 8.79402560702e-08 -1.56987288213e-05)
(7.26690039165e-07 7.35673012824e-08 -1.52536298049e-05)
(7.49990432859e-07 5.74773996224e-08 -1.4920742926e-05)
(7.70011449546e-07 3.77229917048e-08 -1.47020907934e-05)
(7.80754768668e-07 1.35824784669e-08 -1.45890584898e-05)
(7.07949933884e-08 7.13378578055e-07 -1.94365332499e-05)
(1.99927376967e-07 7.00390380309e-07 -1.92396686248e-05)
(3.27314947968e-07 6.63746711125e-07 -1.89005523243e-05)
(4.41380280166e-07 6.07595524973e-07 -1.84384537519e-05)
(5.40616687858e-07 5.41379900397e-07 -1.78637411605e-05)
(6.23949474538e-07 4.72538744735e-07 -1.7220583603e-05)
(6.92739661561e-07 4.05332159827e-07 -1.65445576826e-05)
(7.485136349e-07 3.42931463387e-07 -1.58658874721e-05)
(7.9364812514e-07 2.87233496373e-07 -1.52172547316e-05)
(8.3114995827e-07 2.38479915201e-07 -1.46270715573e-05)
(8.63793591412e-07 1.9523786173e-07 -1.41170798297e-05)
(8.9294649222e-07 1.54675721786e-07 -1.37024549616e-05)
(9.16982238887e-07 1.13738986792e-07 -1.33901188695e-05)
(9.36562727058e-07 7.08606822468e-08 -1.31820561663e-05)
(9.44425055732e-07 2.45489028779e-08 -1.3070115169e-05)
(8.55864790982e-08 1.00001746122e-06 -1.67436530973e-05)
(2.39076738353e-07 9.84028946685e-07 -1.65681322204e-05)
(3.88603222856e-07 9.36514144318e-07 -1.62623063757e-05)
(5.22632190332e-07 8.66918070117e-07 -1.58430338647e-05)
(6.38331946127e-07 7.83237625012e-07 -1.53323387905e-05)
(7.35177108211e-07 6.93583347147e-07 -1.4763956011e-05)
(8.14560119141e-07 6.03087699232e-07 -1.416814163e-05)
(8.78282932991e-07 5.15647799303e-07 -1.35711776435e-05)
(9.28874842206e-07 4.338148857e-07 -1.30012879001e-05)
(9.69441831174e-07 3.58643248322e-07 -1.24823408741e-05)
(1.0030083388e-06 2.89607715938e-07 -1.20318667793e-05)
(1.03120519827e-06 2.24747228051e-07 -1.16626703771e-05)
(1.05254275141e-06 1.61488872245e-07 -1.13815307442e-05)
(1.06910298976e-06 9.83603889244e-08 -1.11914023028e-05)
(1.0726949056e-06 3.35112215875e-08 -1.1086533256e-05)
(9.67863345732e-08 1.20795141853e-06 -1.31962080878e-05)
(2.65898107139e-07 1.18948332099e-06 -1.30279945545e-05)
(4.31515778317e-07 1.13371452076e-06 -1.27681082973e-05)
(5.77432836468e-07 1.05292775449e-06 -1.24299300386e-05)
(7.01934970782e-07 9.55043727577e-07 -1.20164642896e-05)
(8.04551087943e-07 8.48697429248e-07 -1.15585038753e-05)
(8.86742864017e-07 7.39789838164e-07 -1.10790161566e-05)
(9.50775051681e-07 6.32857735429e-07 -1.05980755259e-05)
(9.99510588505e-07 5.31143831278e-07 -1.01386101262e-05)
(1.03634593247e-06 4.36445623834e-07 -9.71972183859e-06)
(1.06477654816e-06 3.48953305652e-07 -9.35466997893e-06)
(1.08695601881e-06 2.67313990176e-07 -9.05296075972e-06)
(1.10191809019e-06 1.89282632044e-07 -8.82086533727e-06)
(1.11347731138e-06 1.13567403517e-07 -8.66292471363e-06)
(1.11331234349e-06 3.83075800283e-08 -8.57740376723e-06)
(9.55173563937e-08 1.21163244127e-06 -8.59838178941e-06)
(2.61352821304e-07 1.1828716015e-06 -8.49172797278e-06)
(4.19294339366e-07 1.12510020397e-06 -8.31071350324e-06)
(5.55238005337e-07 1.0433208781e-06 -8.07691360582e-06)
(6.6892552504e-07 9.44863245584e-07 -7.80029946286e-06)
(7.59413686948e-07 8.37868485497e-07 -7.49462618308e-06)
(8.29192832533e-07 7.27984745873e-07 -7.17469428507e-06)
(8.80524301885e-07 6.1987128584e-07 -6.85377353897e-06)
(9.16569635279e-07 5.16927708386e-07 -6.54668236103e-06)
(9.40850636625e-07 4.21271116337e-07 -6.26636683764e-06)
(9.57073119507e-07 3.33448541927e-07 -6.02164320394e-06)
(9.67820919497e-07 2.52419481152e-07 -5.81867081078e-06)
(9.7293206761e-07 1.76535985662e-07 -5.66231804226e-06)
(9.7796091951e-07 1.04481553044e-07 -5.55752711978e-06)
(9.72473615897e-07 3.4824563231e-08 -5.50215365985e-06)
(5.86000099037e-08 7.5451681899e-07 -2.98996268073e-06)
(1.54956981873e-07 7.28430505877e-07 -2.94202171257e-06)
(2.47279153363e-07 6.86351224616e-07 -2.87471187185e-06)
(3.25327407425e-07 6.29899395776e-07 -2.79293966189e-06)
(3.87462711127e-07 5.63886864747e-07 -2.69316373369e-06)
(4.34188214457e-07 4.93232581776e-07 -2.58328566884e-06)
(4.66618949715e-07 4.21967619131e-07 -2.46838261552e-06)
(4.86901709795e-07 3.53176747796e-07 -2.3529144471e-06)
(4.9753886659e-07 2.8914186894e-07 -2.24252446813e-06)
(5.01236141546e-07 2.31153322063e-07 -2.1421391648e-06)
(5.0073521336e-07 1.79425546273e-07 -2.05497165837e-06)
(4.98129078333e-07 1.33214106417e-07 -1.98329923401e-06)
(4.94111086555e-07 9.1597843407e-08 -1.92925518862e-06)
(4.91022388624e-07 5.34641369074e-08 -1.89537593043e-06)
(4.85535100524e-07 1.75677539914e-08 -1.87715023287e-06)
(-6.10201442955e-10 -6.70172088731e-07 -2.47455039468e-05)
(-4.17435193996e-09 -6.69475611529e-07 -2.45609479654e-05)
(-8.8055613266e-09 -6.60800508985e-07 -2.41931502611e-05)
(-1.41207777615e-08 -6.50140733605e-07 -2.36698772963e-05)
(-2.29330070872e-08 -6.341179494e-07 -2.30255307653e-05)
(-3.52512376762e-08 -6.10688759154e-07 -2.22987419511e-05)
(-5.07481648036e-08 -5.79085887366e-07 -2.15225751413e-05)
(-6.92265514083e-08 -5.38704872721e-07 -2.0729265253e-05)
(-8.97734494662e-08 -4.88982659275e-07 -1.99587546372e-05)
(-1.10540103612e-07 -4.29644999746e-07 -1.92519044064e-05)
(-1.29316828909e-07 -3.61334528428e-07 -1.864208201e-05)
(-1.44058852741e-07 -2.85890885679e-07 -1.81509973187e-05)
(-1.53852740408e-07 -2.05763608739e-07 -1.77881465915e-05)
(-1.59160334245e-07 -1.24540113241e-07 -1.75539612843e-05)
(-1.57271819947e-07 -4.14562941715e-08 -1.74433588906e-05)
(-3.38319145146e-10 -5.6082548743e-07 -2.44380478225e-05)
(-4.35540303388e-10 -5.58667529483e-07 -2.42422755381e-05)
(1.76758708025e-09 -5.5161790767e-07 -2.38650388266e-05)
(9.31619774729e-10 -5.44866850146e-07 -2.33377288481e-05)
(-3.58117718583e-09 -5.32786617309e-07 -2.26872569237e-05)
(-1.16452363602e-08 -5.13052308493e-07 -2.19561680942e-05)
(-2.25355752966e-08 -4.84955441815e-07 -2.11776150805e-05)
(-3.57057106534e-08 -4.48047066594e-07 -2.03844418717e-05)
(-4.98090582473e-08 -4.02119540869e-07 -1.96177391559e-05)
(-6.27295348231e-08 -3.47641810109e-07 -1.89178950408e-05)
(-7.22596340006e-08 -2.86275811409e-07 -1.83167820141e-05)
(-7.67825198246e-08 -2.2099490091e-07 -1.78341668007e-05)
(-7.66415662614e-08 -1.55206903648e-07 -1.74779183583e-05)
(-7.40274172644e-08 -9.18757794163e-08 -1.72475893278e-05)
(-6.89849177996e-08 -3.00483661376e-08 -1.71369663748e-05)
(4.83031448425e-09 -4.28403440014e-07 -2.38669485463e-05)
(1.3811263277e-08 -4.22663814793e-07 -2.36577776845e-05)
(2.23961617746e-08 -4.1912281942e-07 -2.32892039058e-05)
(2.78676031274e-08 -4.17004341117e-07 -2.27665573867e-05)
(2.91837534158e-08 -4.10794405493e-07 -2.21185988845e-05)
(2.66823401714e-08 -3.97327998569e-07 -2.13890497503e-05)
(2.15720128325e-08 -3.75763737013e-07 -2.06137732864e-05)
(1.47706222417e-08 -3.45695392213e-07 -1.98269812924e-05)
(7.90137034284e-09 -3.07290125261e-07 -1.90694887066e-05)
(3.00378214814e-09 -2.6164650923e-07 -1.83799159732e-05)
(1.90983942457e-09 -2.11059765205e-07 -1.77883606923e-05)
(5.57409279652e-09 -1.58977391637e-07 -1.7313292609e-05)
(1.2627691533e-08 -1.08977974107e-07 -1.69620317435e-05)
(2.07837196345e-08 -6.3178170633e-08 -1.6733956123e-05)
(2.80359634707e-08 -2.03897433389e-08 -1.66214003624e-05)
(1.02445739865e-08 -2.55440933131e-07 -2.29239184444e-05)
(2.78087216014e-08 -2.53020504492e-07 -2.27300453659e-05)
(4.59200225175e-08 -2.5454217558e-07 -2.23669489659e-05)
(6.10882263003e-08 -2.5854357555e-07 -2.18549642457e-05)
(7.15197201205e-08 -2.60500681464e-07 -2.12164108342e-05)
(7.78402824899e-08 -2.56429181439e-07 -2.04969226543e-05)
(8.12680698026e-08 -2.45226881753e-07 -1.97349206543e-05)
(8.28837606345e-08 -2.26372359893e-07 -1.89650496649e-05)
(8.43497847056e-08 -2.00213892697e-07 -1.82264373008e-05)
(8.74961394672e-08 -1.68109736538e-07 -1.75548520073e-05)
(9.3798152646e-08 -1.32511087289e-07 -1.69781345784e-05)
(1.0373051815e-07 -9.68369246895e-08 -1.65137050764e-05)
(1.14971655082e-07 -6.42623334105e-08 -1.61688711058e-05)
(1.25299305614e-07 -3.59480706315e-08 -1.59441249623e-05)
(1.32914427928e-07 -1.12766532048e-08 -1.58309709951e-05)
(1.69273584625e-08 -6.6183315646e-08 -2.15420857159e-05)
(4.77576420516e-08 -6.81855863538e-08 -2.134258194e-05)
(7.96768520521e-08 -7.34990113655e-08 -2.09909315005e-05)
(1.07237343104e-07 -8.4521317568e-08 -2.04965394162e-05)
(1.28912496163e-07 -9.5632246366e-08 -1.98801838104e-05)
(1.45612058898e-07 -1.02684824803e-07 -1.91874184561e-05)
(1.58495724317e-07 -1.04212129578e-07 -1.84563796411e-05)
(1.68728753842e-07 -9.94901547676e-08 -1.77204341667e-05)
(1.77913705341e-07 -8.87750072008e-08 -1.70159210393e-05)
(1.87678774758e-07 -7.32472906591e-08 -1.63750939998e-05)
(1.99292275487e-07 -5.50430587289e-08 -1.58232591103e-05)
(2.13095366583e-07 -3.71694944228e-08 -1.53769668689e-05)
(2.26401711644e-07 -2.2330145981e-08 -1.5042940656e-05)
(2.37489924082e-07 -1.07223095828e-08 -1.48225641061e-05)
(2.44778555373e-07 -2.81669298484e-09 -1.47080780153e-05)
(2.52164168468e-08 1.33190818182e-07 -1.95759984124e-05)
(7.09993681164e-08 1.29905492634e-07 -1.9379254764e-05)
(1.17929944516e-07 1.2062219148e-07 -1.90398146716e-05)
(1.58643992344e-07 1.01960365473e-07 -1.85774080491e-05)
(1.92838911888e-07 8.0588024348e-08 -1.80021104926e-05)
(2.20765094314e-07 6.07138628383e-08 -1.73576730616e-05)
(2.43495747725e-07 4.42734252876e-08 -1.66796184212e-05)
(2.62116157503e-07 3.23470553052e-08 -1.5998534179e-05)
(2.78101752465e-07 2.5077491111e-08 -1.53473413202e-05)
(2.92956915284e-07 2.18350490842e-08 -1.4754421129e-05)
(3.07946759506e-07 2.10933953575e-08 -1.42419329274e-05)
(3.23428702644e-07 2.04744101979e-08 -1.38253163971e-05)
(3.36576772474e-07 1.76799057563e-08 -1.35108821907e-05)
(3.46952316352e-07 1.29697423738e-08 -1.33002830174e-05)
(3.53118948132e-07 5.06583149006e-09 -1.31873472603e-05)
(3.47692711188e-08 3.3010230839e-07 -1.68731752645e-05)
(9.66534936755e-08 3.24233953512e-07 -1.66980617027e-05)
(1.57096697873e-07 3.08146172338e-07 -1.63920822413e-05)
(2.10944860338e-07 2.81240263802e-07 -1.59727693703e-05)
(2.56718914433e-07 2.49062759269e-07 -1.54613707503e-05)
(2.94624148917e-07 2.16040877304e-07 -1.48917099309e-05)
(3.25662581007e-07 1.84428770387e-07 -1.42939236825e-05)
(3.50875515114e-07 1.55702967063e-07 -1.36945971961e-05)
(3.71609871378e-07 1.30504678247e-07 -1.31221013551e-05)
(3.89343307296e-07 1.08893610885e-07 -1.26003447072e-05)
(4.05569601434e-07 8.99934742461e-08 -1.21473548217e-05)
(4.20797436165e-07 7.20069797703e-08 -1.17761112556e-05)
(4.31984783007e-07 5.29600433896e-08 -1.14929479996e-05)
(4.4055182146e-07 3.32370162522e-08 -1.13009243381e-05)
(4.44926121123e-07 1.16313305458e-08 -1.11964174794e-05)
(4.16781444313e-08 4.77438110066e-07 -1.33045499669e-05)
(1.13900671249e-07 4.73216764529e-07 -1.31362150065e-05)
(1.85949392287e-07 4.51240121152e-07 -1.28764358629e-05)
(2.49128926989e-07 4.17742245875e-07 -1.25378397791e-05)
(3.02603902705e-07 3.76733665272e-07 -1.21238048295e-05)
(3.46610921429e-07 3.32870807239e-07 -1.16645540786e-05)
(3.81862837325e-07 2.88883183177e-07 -1.11832789626e-05)
(4.09604720921e-07 2.4660763182e-07 -1.07002746848e-05)
(4.31207352047e-07 2.07213250733e-07 -1.02385142338e-05)
(4.48279989352e-07 1.71352531501e-07 -9.81714642473e-06)
(4.62686852966e-07 1.38642617688e-07 -9.44987034222e-06)
(4.75203183075e-07 1.07681580236e-07 -9.14635954635e-06)
(4.82838928452e-07 7.66150665662e-08 -8.91307763082e-06)
(4.89215470705e-07 4.61769171922e-08 -8.75472339698e-06)
(4.92351023307e-07 1.5642697786e-08 -8.66940791704e-06)
(4.37298476509e-08 5.20107858021e-07 -8.66552228327e-06)
(1.20437665861e-07 5.08814873724e-07 -8.55608343753e-06)
(1.92442372188e-07 4.8503545789e-07 -8.37456648189e-06)
(2.5409297585e-07 4.49899857759e-07 -8.14056632724e-06)
(3.05444826288e-07 4.07040960883e-07 -7.86313495273e-06)
(3.45914695544e-07 3.60736038806e-07 -7.55636344989e-06)
(3.77201858419e-07 3.13463448019e-07 -7.23501135137e-06)
(4.00376178534e-07 2.67267023288e-07 -6.91242780502e-06)
(4.16908670777e-07 2.23544958872e-07 -6.60352222506e-06)
(4.28462821103e-07 1.83247603105e-07 -6.32124294065e-06)
(4.37027715337e-07 1.46320608416e-07 -6.07470604272e-06)
(4.43631914276e-07 1.11618492846e-07 -5.87035802422e-06)
(4.45803686799e-07 7.79299744344e-08 -5.713649726e-06)
(4.50069957744e-07 4.63956905536e-08 -5.60817435512e-06)
(4.49652125844e-07 1.56227028881e-08 -5.5486697189e-06)
(2.66032821786e-08 3.36064612556e-07 -2.98764013678e-06)
(7.05529979236e-08 3.22983113455e-07 -2.93950439587e-06)
(1.12880943743e-07 3.0430474863e-07 -2.87201018274e-06)
(1.48739182578e-07 2.78756959101e-07 -2.79012999131e-06)
(1.76974630209e-07 2.48883960082e-07 -2.69048628271e-06)
(1.98120098382e-07 2.17128687492e-07 -2.58062449129e-06)
(2.12620746212e-07 1.85359164609e-07 -2.46554399742e-06)
(2.2157847884e-07 1.54930291132e-07 -2.34977157146e-06)
(2.26153140577e-07 1.26834668111e-07 -2.2389228413e-06)
(2.27635668349e-07 1.01635962262e-07 -2.13790451607e-06)
(2.27469160656e-07 7.92431803192e-08 -2.05005831156e-06)
(2.2657685807e-07 5.8929118206e-08 -1.97784455439e-06)
(2.24332462885e-07 4.0445722628e-08 -1.92347878083e-06)
(2.23646066534e-07 2.38561500869e-08 -1.88763304797e-06)
(2.20710516627e-07 7.94158451152e-09 -1.86789873515e-06)
(-2.97906570513e-08 -1.02060057213e-06 -2.49239759686e-05)
(-9.02023654987e-08 -1.00707374665e-06 -2.4732261907e-05)
(-1.49993439717e-07 -9.81254125011e-07 -2.43648767215e-05)
(-2.06302972447e-07 -9.47776518167e-07 -2.38407426159e-05)
(-2.61383719492e-07 -9.06247149432e-07 -2.3195040535e-05)
(-3.14714956151e-07 -8.55438106943e-07 -2.24672627074e-05)
(-3.65730693638e-07 -7.95337871841e-07 -2.16901165639e-05)
(-4.14027074944e-07 -7.26331486026e-07 -2.08957875259e-05)
(-4.58711601106e-07 -6.48905545591e-07 -2.01244238286e-05)
(-4.98613463802e-07 -5.63366741852e-07 -1.94166672064e-05)
(-5.32511989116e-07 -4.70238689592e-07 -1.88059079406e-05)
(-5.59015135253e-07 -3.70783505355e-07 -1.83140967403e-05)
(-5.77275942489e-07 -2.66687221779e-07 -1.79505989666e-05)
(-5.8856099291e-07 -1.61047469889e-07 -1.77156648572e-05)
(-5.92324952972e-07 -5.35110461401e-08 -1.76036603331e-05)
(-3.08182198538e-08 -9.02795268623e-07 -2.45963582971e-05)
(-9.03902036028e-08 -8.90753818172e-07 -2.4407677724e-05)
(-1.44878925922e-07 -8.6481604375e-07 -2.4031237576e-05)
(-1.97403999816e-07 -8.3430310584e-07 -2.35028357666e-05)
(-2.48531597493e-07 -7.95891398564e-07 -2.28508803756e-05)
(-2.97370726259e-07 -7.48285055821e-07 -2.21184657114e-05)
(-3.43145782601e-07 -6.91573566131e-07 -2.13385532811e-05)
(-3.85182637712e-07 -6.26319714305e-07 -2.05442922547e-05)
(-4.22310820461e-07 -5.53322905453e-07 -1.97769506194e-05)
(-4.53262888742e-07 -4.7350288288e-07 -1.90765182302e-05)
(-4.76896640343e-07 -3.88296343228e-07 -1.84749426091e-05)
(-4.92263345847e-07 -3.0010436377e-07 -1.79922681904e-05)
(-4.99778782787e-07 -2.11712665425e-07 -1.76359466804e-05)
(-5.0268965015e-07 -1.25597617915e-07 -1.74049895012e-05)
(-5.03088444853e-07 -4.11321901209e-08 -1.72926397111e-05)
(-2.84383609742e-08 -8.02599987646e-07 -2.40351836918e-05)
(-8.20726700217e-08 -7.85445866388e-07 -2.38265958532e-05)
(-1.32265689506e-07 -7.60399188221e-07 -2.34564376653e-05)
(-1.81187110547e-07 -7.31656909431e-07 -2.29323878073e-05)
(-2.28534609273e-07 -6.95781307136e-07 -2.22823945336e-05)
(-2.7334177272e-07 -6.51118550732e-07 -2.15509871171e-05)
(-3.1436439045e-07 -5.97807083343e-07 -2.07739003181e-05)
(-3.50616562437e-07 -5.36581792366e-07 -1.99857683075e-05)
(-3.80808704407e-07 -4.68677003219e-07 -1.92274642835e-05)
(-4.03906109344e-07 -3.95601956068e-07 -1.85371494947e-05)
(-4.19218351042e-07 -3.19369856312e-07 -1.79450519294e-05)
(-4.265089141e-07 -2.42793717164e-07 -1.74699460858e-05)
(-4.27287328255e-07 -1.68719152782e-07 -1.71186229735e-05)
(-4.25187265644e-07 -9.89621473759e-08 -1.68896439624e-05)
(-4.23269583833e-07 -3.22285108625e-08 -1.67758001229e-05)
(-2.55274928538e-08 -6.88833584833e-07 -2.30937713078e-05)
(-7.53562055897e-08 -6.73498223964e-07 -2.28979270424e-05)
(-1.21771866032e-07 -6.51426374939e-07 -2.25345477799e-05)
(-1.65894962332e-07 -6.25043615188e-07 -2.20216404192e-05)
(-2.08241881591e-07 -5.92482280677e-07 -2.13819422438e-05)
(-2.47421487188e-07 -5.51842523348e-07 -2.06612975516e-05)
(-2.82205532333e-07 -5.03387904877e-07 -1.98978902743e-05)
(-3.11613906878e-07 -4.48018258249e-07 -1.91267897952e-05)
(-3.34569637396e-07 -3.87307769755e-07 -1.83871555318e-05)
(-3.50465961762e-07 -3.23079316005e-07 -1.77144132687e-05)
(-3.59104698389e-07 -2.57525727285e-07 -1.71367037195e-05)
(-3.60806507652e-07 -1.9338749893e-07 -1.66717568051e-05)
(-3.58119949789e-07 -1.32911063194e-07 -1.63262500309e-05)
(-3.54889295799e-07 -7.71737649205e-08 -1.60998349868e-05)