/*--------------------------------*- C++ -*----------------------------------*\
| =========                 |                                                 |
| \\      /  F ield         | foam-extend: Open Source CFD                    |
|  \\    /   O peration     | Version:     4.1                                |
|   \\  /    A nd           | Web:         http://www.foam-extend.org         |
|    \\/     M anipulation  |                                                 |
\*---------------------------------------------------------------------------*/
FoamFile
{
    version     2.0;
    format      ascii;
    class       vectorField;
    location    "1";
    object      solidsCellD_iteration4;
}
// * * * * * * * * * * * * * * * * * * * * * * * * * * * * * * * * * * * * * //


1050
(
(3.47320375723e-08 -3.01723988392e-07 -2.15130860862e-05)
(1.0215543329e-07 -3.09680571287e-07 -2.13482166815e-05)
(1.66327947773e-07 -3.2760907975e-07 -2.10233933578e-05)
(2.21741735605e-07 -3.50784909562e-07 -2.05656525902e-05)
(2.66804280631e-07 -3.72351315409e-07 -2.00047200819e-05)
(3.00822727514e-07 -3.88396499066e-07 -1.93759276547e-05)
(3.23614521894e-07 -3.96608281418e-07 -1.87078989066e-05)
(3.34549246296e-07 -3.94310558396e-07 -1.80267555756e-05)
(3.33897697023e-07 -3.78447388035e-07 -1.7364523364e-05)
(3.24247236658e-07 -3.47114971808e-07 -1.67560983383e-05)
(3.09851807766e-07 -3.00842645839e-07 -1.6230920989e-05)
(2.95064656439e-07 -2.42450453797e-07 -1.58081292426e-05)
(2.8297276534e-07 -1.75934720638e-07 -1.54961716529e-05)
(2.75074067598e-07 -1.0551108722e-07 -1.52953935284e-05)
(2.71672481722e-07 -3.44120631012e-08 -1.52016002963e-05)
(3.85962184894e-08 -1.71776654314e-07 -2.12709238782e-05)
(1.12158955851e-07 -1.80678481835e-07 -2.10907656929e-05)
(1.82419001174e-07 -2.05278238854e-07 -2.07622642691e-05)
(2.43419770745e-07 -2.35726639845e-07 -2.03036347818e-05)
(2.93615611378e-07 -2.64509563557e-07 -1.97410406283e-05)
(3.32255476413e-07 -2.86864031248e-07 -1.91115539371e-05)
(3.59718105713e-07 -3.00718428066e-07 -1.84434690889e-05)
(3.75871039242e-07 -3.03436852619e-07 -1.77629052971e-05)
(3.81667746093e-07 -2.92129236878e-07 -1.71032017258e-05)
(3.80278964353e-07 -2.65702797876e-07 -1.6499612841e-05)
(3.76085711566e-07 -2.26017152191e-07 -1.59806200942e-05)
(3.72880336357e-07 -1.77279390945e-07 -1.55639017719e-05)
(3.7232834387e-07 -1.24465852678e-07 -1.52566810017e-05)
(3.7387270976e-07 -7.2018456573e-08 -1.50589885644e-05)
(3.75497068331e-07 -2.24966724635e-08 -1.49688130946e-05)
(4.74693771034e-08 3.2894249957e-08 -2.07609523923e-05)
(1.35129164661e-07 1.87811842715e-08 -2.058283113e-05)
(2.17789818026e-07 -1.06375095585e-08 -2.02665646367e-05)
(2.91569625504e-07 -4.81893940219e-08 -1.98151221014e-05)
(3.53301335166e-07 -8.57829192343e-08 -1.92578427736e-05)
(4.02655541853e-07 -1.17804272796e-07 -1.86313785598e-05)
(4.40192400436e-07 -1.42069014485e-07 -1.7967280824e-05)
(4.66265571844e-07 -1.5605023508e-07 -1.72930726788e-05)
(4.82466558561e-07 -1.57094211162e-07 -1.66420094635e-05)
(4.92355006075e-07 -1.4459626204e-07 -1.6047812199e-05)
(5.00161455338e-07 -1.21040257769e-07 -1.55372262033e-05)
(5.08943013049e-07 -9.11381944644e-08 -1.51267119491e-05)
(5.1924592429e-07 -5.9969902487e-08 -1.48231288242e-05)
(5.29808041801e-07 -3.20778900074e-08 -1.46263843972e-05)
(5.36119926924e-07 -8.79983828022e-09 -1.45333846465e-05)
(5.67020971789e-08 2.99998772192e-07 -1.99455496991e-05)
(1.61714184116e-07 2.8526116428e-07 -1.97823689695e-05)
(2.64689272277e-07 2.5139817611e-07 -1.94703584237e-05)
(3.57504977969e-07 2.05324285621e-07 -1.90309156108e-05)
(4.37410817618e-07 1.5557125857e-07 -1.84816208572e-05)
(5.0334354118e-07 1.08796656983e-07 -1.78624047482e-05)
(5.55928079393e-07 6.79320326177e-08 -1.72082620363e-05)
(5.96007779429e-07 3.57158266307e-08 -1.65476619505e-05)
(6.25683337872e-07 1.46823657821e-08 -1.59126005676e-05)
(6.48680936069e-07 5.2364975471e-09 -1.53342067119e-05)
(6.68950318039e-07 4.81021701908e-09 -1.48369222925e-05)
(6.8883862799e-07 8.81653688185e-09 -1.44359701649e-05)
(7.07818314013e-07 1.26813054929e-08 -1.41385693569e-05)
(7.24258455445e-07 1.19844540659e-08 -1.3945766052e-05)
(7.33398971427e-07 6.10009645817e-09 -1.38513166287e-05)
(7.06631502924e-08 6.11383473135e-07 -1.87508643453e-05)
(2.01434838274e-07 5.93095895689e-07 -1.85756438066e-05)
(3.302826719e-07 5.54153324853e-07 -1.82737994843e-05)
(4.46529178466e-07 4.97728551243e-07 -1.78513450093e-05)
(5.47783152847e-07 4.33211760879e-07 -1.73208430613e-05)
(6.32714043362e-07 3.67943538262e-07 -1.67237120575e-05)
(7.0219948843e-07 3.05986839875e-07 -1.60953137071e-05)
(7.57572386688e-07 2.50525637979e-07 -1.5463492154e-05)
(8.01282127832e-07 2.04129424887e-07 -1.48579593547e-05)
(8.37033441788e-07 1.67352482642e-07 -1.43066838219e-05)
(8.68452004162e-07 1.38100876468e-07 -1.38316424526e-05)
(8.97431832175e-07 1.12436059957e-07 -1.34467835072e-05)
(9.22967224921e-07 8.64832805978e-08 -1.31589725936e-05)
(9.43285939223e-07 5.62590915879e-08 -1.29706030038e-05)
(9.53135771146e-07 2.1049114935e-08 -1.28748580976e-05)
(8.73596782344e-08 9.50404265966e-07 -1.70431852581e-05)
(2.46938805685e-07 9.29806196121e-07 -1.68751361971e-05)
(4.04458278922e-07 8.82552881654e-07 -1.6585336491e-05)
(5.46160554992e-07 8.12802240227e-07 -1.61886591483e-05)
(6.70402718066e-07 7.29967009322e-07 -1.56915262391e-05)
(7.75339971941e-07 6.42447670445e-07 -1.51339578941e-05)
(8.62139961866e-07 5.55364822417e-07 -1.45491566256e-05)
(9.32497779915e-07 4.72602718897e-07 -1.39631534983e-05)
(9.89096678832e-07 3.96990534442e-07 -1.34029493662e-05)
(1.03558788521e-06 3.29526992167e-07 -1.28929932395e-05)
(1.07536001016e-06 2.68979212581e-07 -1.24523924419e-05)
(1.11004117314e-06 2.12430076022e-07 -1.20939679237e-05)
(1.13862380594e-06 1.56669109424e-07 -1.18241234199e-05)
(1.15995676159e-06 9.7956381334e-08 -1.16453921864e-05)
(1.16862973471e-06 3.50891804821e-08 -1.15516235516e-05)
(1.0544424471e-07 1.28647069436e-06 -1.4709642121e-05)
(2.95288233631e-07 1.26449328159e-06 -1.45574352448e-05)
(4.81873948337e-07 1.20412185041e-06 -1.4296364316e-05)
(6.49104518752e-07 1.11888949369e-06 -1.39357960938e-05)
(7.94382075009e-07 1.01560620658e-06 -1.34930395184e-05)
(9.16797586257e-07 9.03869666448e-07 -1.2998811593e-05)
(1.01765939157e-06 7.89942196482e-07 -1.24819725677e-05)
(1.09913435879e-06 6.7849094594e-07 -1.19653459537e-05)
(1.16417631745e-06 5.72867139653e-07 -1.147242648e-05)
(1.21650371932e-06 4.74730142099e-07 -1.10235192089e-05)
(1.2595645479e-06 3.83857095795e-07 -1.06340107391e-05)
(1.29512784361e-06 2.9845479028e-07 -1.03150595549e-05)
(1.32255454209e-06 2.15944652715e-07 -1.00731239759e-05)
(1.34178790264e-06 1.32567427798e-07 -9.91116200846e-06)
(1.34780104622e-06 4.663583667e-08 -9.82410048533e-06)
(1.22228984601e-07 1.55299086844e-06 -1.16318374212e-05)
(3.34382820861e-07 1.52494335715e-06 -1.14917123617e-05)
(5.43402301502e-07 1.45540480474e-06 -1.12654376369e-05)
(7.28383828373e-07 1.35534097547e-06 -1.09743417655e-05)
(8.87207788301e-07 1.23404789796e-06 -1.061473163e-05)
(1.01926880727e-06 1.10126061572e-06 -1.02159916784e-05)
(1.12621179883e-06 9.64282847159e-07 -9.79925689978e-06)
(1.21068514095e-06 8.2860665552e-07 -9.38241250566e-06)
(1.27606784965e-06 6.98260268072e-07 -8.98463287902e-06)
(1.32633957282e-06 5.75639382057e-07 -8.62191768881e-06)
(1.36537527088e-06 4.61396226288e-07 -8.30579547676e-06)
(1.3956386856e-06 3.54572626832e-07 -8.04495825948e-06)
(1.41740951041e-06 2.53044540844e-07 -7.8454372236e-06)
(1.43199790242e-06 1.53103146387e-07 -7.7109561099e-06)
(1.43509461358e-06 5.31980917642e-08 -7.63803879745e-06)
(1.24275720637e-07 1.60841056234e-06 -7.64090192165e-06)
(3.38401622332e-07 1.56823045432e-06 -7.54804619072e-06)
(5.45751800045e-07 1.49485860726e-06 -7.3959611381e-06)
(7.24808135779e-07 1.39009301611e-06 -7.19250999017e-06)
(8.76456192616e-07 1.26383119569e-06 -6.95237266273e-06)
(9.99163167372e-07 1.12556904298e-06 -6.68514233649e-06)
(1.09561540958e-06 9.82571752155e-07 -6.40608986742e-06)
(1.16852169976e-06 8.40669098262e-07 -6.12694784132e-06)
(1.2216167884e-06 7.04214279722e-07 -5.86033304439e-06)
(1.25907532268e-06 5.76044993964e-07 -5.61705598035e-06)
(1.2851846123e-06 4.57298625497e-07 -5.40473389534e-06)
(1.30318609011e-06 3.47443151509e-07 -5.22910792734e-06)
(1.314415308e-06 2.4480298437e-07 -5.09464715499e-06)
(1.32149695703e-06 1.45853176728e-07 -5.00518750896e-06)
(1.31995792376e-06 5.00132093246e-08 -4.95696491871e-06)
(8.8897355765e-08 1.12692492877e-06 -2.74671451901e-06)
(2.3111084975e-07 1.09323661528e-06 -2.70876940433e-06)
(3.70010525089e-07 1.03466246404e-06 -2.64821969087e-06)
(4.89025985499e-07 9.55552875976e-07 -2.5783101746e-06)
(5.86002771481e-07 8.62034837999e-07 -2.49008301704e-06)
(6.61428426529e-07 7.60505958297e-07 -2.3929822267e-06)
(7.16601871455e-07 6.56628861734e-07 -2.29146927844e-06)
(7.5422706854e-07 5.54792226086e-07 -2.18968035335e-06)
(7.77501713285e-07 4.58315218305e-07 -2.09260231855e-06)
(7.89938996592e-07 3.69258891457e-07 -2.00445219413e-06)
(7.95158422193e-07 2.88424142841e-07 -1.92809121682e-06)
(7.96185313146e-07 2.15475335907e-07 -1.86568012717e-06)
(7.94928501713e-07 1.49269125448e-07 -1.81908472893e-06)
(7.93116584341e-07 8.75848697083e-08 -1.79024520307e-06)
(7.90327151619e-07 2.98776352472e-08 -1.77560114561e-06)
(1.55987349108e-08 -4.70497631656e-07 -2.15896307015e-05)
(4.57558493693e-08 -4.74025501579e-07 -2.14295424159e-05)
(7.41395631477e-08 -4.78421981312e-07 -2.11067857599e-05)
(9.77663880445e-08 -4.84450248598e-07 -2.06497403629e-05)
(1.14719238311e-07 -4.86487745646e-07 -2.00899342908e-05)
(1.24434824958e-07 -4.81776819491e-07 -1.94622582488e-05)
(1.2683409289e-07 -4.68939204763e-07 -1.87945049327e-05)
(1.21869425169e-07 -4.46667018978e-07 -1.81119122272e-05)
(1.10381420496e-07 -4.13612715765e-07 -1.74471608112e-05)
(9.47388328453e-08 -3.69103543948e-07 -1.68359560291e-05)
(7.81466837348e-08 -3.13880519295e-07 -1.63082321799e-05)
(6.36352961307e-08 -2.50122016656e-07 -1.58834316822e-05)
(5.31925303408e-08 -1.80785730578e-07 -1.55699573446e-05)
(4.80045953573e-08 -1.09153320215e-07 -1.536773322e-05)
(5.01021242642e-08 -3.59868645469e-08 -1.52734400751e-05)
(1.75277315147e-08 -3.66823905972e-07 -2.13539537077e-05)
(5.23301051376e-08 -3.6689330066e-07 -2.11809806772e-05)
(8.67136119556e-08 -3.75108644704e-07 -2.08512489369e-05)
(1.14985010584e-07 -3.85825278233e-07 -2.03928066225e-05)
(1.36444824909e-07 -3.92641279686e-07 -1.98287501879e-05)
(1.50386467305e-07 -3.92279548896e-07 -1.91978730394e-05)
(1.5724934249e-07 -3.83518862298e-07 -1.85282521472e-05)
(1.57343038705e-07 -3.651696298e-07 -1.78455493059e-05)
(1.51925756699e-07 -3.36083861933e-07 -1.71835733201e-05)
(1.4364330129e-07 -2.962277632e-07 -1.65779153766e-05)
(1.35678234741e-07 -2.47315603314e-07 -1.60572649927e-05)
(1.30608006202e-07 -1.92552550097e-07 -1.56394436355e-05)
(1.2928689066e-07 -1.35651685557e-07 -1.5331730392e-05)
(1.31473143281e-07 -7.98984244053e-08 -1.51337556687e-05)
(1.37123052083e-07 -2.58487581891e-08 -1.50431779621e-05)
(2.46015860656e-08 -2.1054662326e-07 -2.08633956266e-05)
(7.04836309118e-08 -2.13313315237e-07 -2.06806420795e-05)
(1.12979397341e-07 -2.25979091002e-07 -2.0365293679e-05)
(1.49930642714e-07 -2.42416503511e-07 -1.99142697837e-05)
(1.79100805083e-07 -2.56474913521e-07 -1.93551809259e-05)
(2.00304042693e-07 -2.63894186789e-07 -1.87270072403e-05)
(2.14408848744e-07 -2.63282494252e-07 -1.80609843999e-05)
(2.22103839848e-07 -2.5347760933e-07 -1.73842632065e-05)
(2.24974368101e-07 -2.33585666873e-07 -1.67305350803e-05)
(2.25694603342e-07 -2.04069934794e-07 -1.61338901385e-05)
(2.27138689279e-07 -1.67223693449e-07 -1.56214217387e-05)
(2.31255745456e-07 -1.26730365698e-07 -1.52098308878e-05)
(2.3797911068e-07 -8.64515100027e-08 -1.49061890933e-05)
(2.46895429887e-07 -4.93874926435e-08 -1.47101092221e-05)
(2.55149582071e-07 -1.5549218907e-08 -1.46173264989e-05)
(3.14648761737e-08 -6.81016419757e-09 -2.00467055404e-05)
(8.91051824625e-08 -1.13100114089e-08 -1.98844514253e-05)
(1.45419010919e-07 -2.85444415906e-08 -1.95760215321e-05)
(1.95701095975e-07 -5.21743527887e-08 -1.91372833027e-05)
(2.37404575218e-07 -7.61720260874e-08 -1.85871977117e-05)
(2.70367139726e-07 -9.5321251881e-08 -1.79669474779e-05)
(2.9546990985e-07 -1.07721054569e-07 -1.73112507895e-05)
(3.13667778842e-07 -1.11985887335e-07 -1.66483325392e-05)
(3.26743945333e-07 -1.07280113736e-07 -1.60106496606e-05)
(3.37322765623e-07 -9.42127084251e-08 -1.54297321108e-05)
(3.47995429263e-07 -7.51734584868e-08 -1.49304610871e-05)
(3.60193238125e-07 -5.38396302686e-08 -1.45283305431e-05)
(3.72909643375e-07 -3.37418591076e-08 -1.42305394075e-05)
(3.85593223025e-07 -1.74011179883e-08 -1.4037961008e-05)
(3.94542002025e-07 -4.8558968587e-09 -1.39431466731e-05)
(4.09321788854e-08 2.28138282251e-07 -1.88549929792e-05)
(1.16846836895e-07 2.19401265631e-07 -1.86816588052e-05)
(1.91794365757e-07 1.97999268416e-07 -1.83818267906e-05)
(2.58644901097e-07 1.65818945175e-07 -1.79589882879e-05)
(3.15404717507e-07 1.30286341998e-07 -1.74274811469e-05)
(3.62013800515e-07 9.68608916809e-08 -1.68291581905e-05)
(3.99437094607e-07 6.82010588916e-08 -1.619913638e-05)
(4.28857311796e-07 4.60559153965e-08 -1.55651400506e-05)
(4.5216128982e-07 3.14187905541e-08 -1.49573575788e-05)
(4.71868751276e-07 2.39125099967e-08 -1.44040126117e-05)
(4.90330622174e-07 2.15331311092e-08 -1.39274016364e-05)
(5.08694888778e-07 2.102773892e-08 -1.35418349966e-05)
(5.25586243231e-07 1.92957035646e-08 -1.32540164563e-05)
(5.40568428121e-07 1.44857035381e-08 -1.30660556415e-05)
(5.48793498218e-07 5.83604253597e-09 -1.29694340282e-05)
(5.22982560939e-08 4.81202371452e-07 -1.71482877726e-05)
(1.48577742759e-07 4.70505802283e-07 -1.69802155491e-05)
(2.43772093379e-07 4.43708726452e-07 -1.6689291402e-05)
(3.28203810764e-07 4.01540355001e-07 -1.6292981465e-05)
(4.0132530268e-07 3.52523495425e-07 -1.57954060665e-05)
(4.62394386925e-07 3.02478078256e-07 -1.52371347858e-05)
(5.12503858478e-07 2.54794587396e-07 -1.46510844408e-05)
(5.52926705188e-07 2.1176817052e-07 -1.40632269437e-05)
(5.85580246405e-07 1.7478092287e-07 -1.35010453289e-05)
(6.12907833113e-07 1.4399252609e-07 -1.2989100989e-05)
(6.37141234436e-07 1.18106205633e-07 -1.2546645938e-05)
(6.59246309147e-07 9.45957973639e-08 -1.2186924768e-05)
(6.77769958202e-07 7.07619029911e-08 -1.19162988622e-05)
(6.93064200464e-07 4.50921891148e-08 -1.17372255691e-05)
(6.99032367653e-07 1.60515164607e-08 -1.16419020134e-05)
(6.49226849362e-08 7.30862437016e-07 -1.48075166314e-05)
(1.82437948761e-07 7.18893422545e-07 -1.46540345841e-05)
(2.96662938264e-07 6.82480320195e-07 -1.43949624671e-05)
(3.98690504287e-07 6.29494096914e-07 -1.40337064601e-05)
(4.86609779458e-07 5.65966199091e-07 -1.35903215492e-05)
(5.60189497091e-07 4.98517543707e-07 -1.30949837058e-05)
(6.20537825721e-07 4.31172214027e-07 -1.25762958772e-05)
(6.69130705685e-07 3.66796731995e-07 -1.20572071611e-05)
(7.07939550189e-07 3.07291155663e-07 -1.15616344952e-05)
(7.39433252511e-07 2.53492838783e-07 -1.11099509146e-05)
(7.65983804451e-07 2.048845647e-07 -1.07176221923e-05)
(7.88649359917e-07 1.59682408983e-07 -1.03961541168e-05)
(8.06022514083e-07 1.15564271689e-07 -1.01520841821e-05)
(8.19612819637e-07 7.10969283646e-08 -9.98888399734e-06)
(8.22371893362e-07 2.45571867712e-08 -9.90083311159e-06)
(7.51783190307e-08 9.19672853464e-07 -1.17076017085e-05)
(2.06598446768e-07 9.07204459866e-07 -1.15675913724e-05)
(3.35882687289e-07 8.63795300036e-07 -1.13407454885e-05)
(4.49797368955e-07 8.01676544227e-07 -1.10497691934e-05)
(5.46926708795e-07 7.26225570169e-07 -1.06890975337e-05)
(6.2724561496e-07 6.4440460725e-07 -1.02887768907e-05)
(6.91801880031e-07 5.60928203338e-07 -9.86974475383e-06)
(7.42437912885e-07 4.79231115122e-07 -9.44992733496e-06)
(7.8135147526e-07 4.01805805343e-07 -9.04888123526e-06)
(8.11222903942e-07 3.30134914208e-07 -8.68271177747e-06)
(8.34829640008e-07 2.64322659667e-07 -8.36312599106e-06)
(8.5367231999e-07 2.03081185128e-07 -8.09918860839e-06)
(8.66743322847e-07 1.4436179744e-07 -7.89724027081e-06)
(8.76992165251e-07 8.70300736971e-08 -7.76202237684e-06)
(8.7717386593e-07 2.95870936911e-08 -7.69061621122e-06)
(7.61111745553e-08 9.56100450435e-07 -7.66914192817e-06)
(2.08897615251e-07 9.32495275903e-07 -7.57342949738e-06)
(3.35218779868e-07 8.87999662117e-07 -7.4210483729e-06)
(4.43745102397e-07 8.23748031462e-07 -7.21665649014e-06)
(5.34886781092e-07 7.4629270228e-07 -6.97519669084e-06)
(6.07606037083e-07 6.61965889135e-07 -6.70634835453e-06)
(6.64069388568e-07 5.75327462022e-07 -6.42504920721e-06)
(7.06009418328e-07 4.90020181501e-07 -6.1431710466e-06)
(7.35842225107e-07 4.08755536478e-07 -5.87354173649e-06)
(7.56357651254e-07 3.33341831429e-07 -5.6269926829e-06)
(7.70582802617e-07 2.64217359802e-07 -5.41136356034e-06)
(7.80458108163e-07 2.00409567406e-07 -5.23281427356e-06)
(7.8566947957e-07 1.40461452577e-07 -5.09625959463e-06)
(7.90837132204e-07 8.34238194735e-08 -5.0065299578e-06)
(7.86353337915e-07 2.79971772142e-08 -4.95934528899e-06)
(4.86299315674e-08 6.19616408883e-07 -2.67739949345e-06)
(1.27495623483e-07 5.9838837351e-07 -2.63899267266e-06)
(2.03932773019e-07 5.64619274778e-07 -2.57887884931e-06)
(2.68703655337e-07 5.18679761023e-07 -2.50883809598e-06)
(3.20467041649e-07 4.64926448274e-07 -2.42110254015e-06)
(3.59720371012e-07 4.0717026439e-07 -2.32427854111e-06)
(3.87234647982e-07 3.48770939678e-07 -2.22281854093e-06)
(4.04768219635e-07 2.92251758756e-07 -2.12086441214e-06)
(4.14283130087e-07 2.39505931877e-07 -2.02336811845e-06)
(4.1799005482e-07 1.91668483081e-07 -1.93447826277e-06)
(4.18214264906e-07 1.48945948492e-07 -1.85714221217e-06)
(4.16634041924e-07 1.10731816687e-07 -1.7937486418e-06)
(4.13849396647e-07 7.62111049928e-08 -1.74638827646e-06)
(4.11657836791e-07 4.47274457837e-08 -1.71739278931e-06)
(4.07106876878e-07 1.49027145391e-08 -1.70168063471e-06)
(-5.7998040682e-09 -6.92675736468e-07 -2.17219625517e-05)
(-1.87784705253e-08 -6.9287532287e-07 -2.15556231285e-05)
(-3.23072609473e-08 -6.84417278449e-07 -2.12337068629e-05)
(-4.62227593664e-08 -6.73613390049e-07 -2.07749752338e-05)
(-6.32352063392e-08 -6.56847437893e-07 -2.02131198573e-05)
(-8.34752392298e-08 -6.32118608827e-07 -1.95838213402e-05)
(-1.06556378472e-07 -5.9878844656e-07 -1.89148330854e-05)
(-1.32038554061e-07 -5.56458741502e-07 -1.82313420746e-05)
(-1.58932814808e-07 -5.04768231542e-07 -1.75662637101e-05)
(-1.85531816504e-07 -4.43585817223e-07 -1.69551166038e-05)
(-2.09809020077e-07 -3.73536502664e-07 -1.64276169796e-05)
(-2.29800918985e-07 -2.96249633069e-07 -1.60031622476e-05)
(-2.44341759702e-07 -2.13969756515e-07 -1.56902575302e-05)
(-2.53358385065e-07 -1.29786017236e-07 -1.54890467881e-05)
(-2.53473254879e-07 -4.30760955279e-08 -1.5394326062e-05)
(-5.40949292093e-09 -5.90547903039e-07 -2.1471182368e-05)
(-1.48882014261e-08 -5.87565120589e-07 -2.13055139419e-05)
(-2.19698567036e-08 -5.80606058219e-07 -2.09755988245e-05)
(-3.15738145864e-08 -5.7317404224e-07 -2.05153211394e-05)
(-4.43463534556e-08 -5.59956706418e-07 -1.99488967055e-05)
(-6.03037867483e-08 -5.38682726031e-07 -1.93160343636e-05)
(-7.86909764221e-08 -5.08797835021e-07 -1.86448075965e-05)
(-9.87825320326e-08 -4.70055121385e-07 -1.79609690666e-05)
(-1.19254276451e-07 -4.22359047784e-07 -1.72985034552e-05)
(-1.38186714367e-07 -3.6618785772e-07 -1.66926796237e-05)
(-1.53563229115e-07 -3.03039889423e-07 -1.61720332016e-05)
(-1.63776310016e-07 -2.35534336816e-07 -1.57543803623e-05)
(-1.6873222348e-07 -1.66744454325e-07 -1.54469520693e-05)
(-1.70099968179e-07 -9.93357533703e-08 -1.52494643174e-05)
(-1.67311506123e-07 -3.26250530256e-08 -1.51561045295e-05)
(-4.88075206465e-10 -4.6774046859e-07 -2.09956140453e-05)
(-1.0816112795e-09 -4.62809600982e-07 -2.08104088677e-05)
(-2.21398280218e-09 -4.58949018149e-07 -2.04921699842e-05)
(-5.98677799124e-09 -4.55399447146e-07 -2.00388509938e-05)
(-1.33162767625e-08 -4.47179539294e-07 -1.9476567054e-05)
(-2.39567352051e-08 -4.31312906215e-07 -1.884561846e-05)
(-3.66852575841e-08 -4.07177826175e-07 -1.81771906138e-05)
(-5.04806477446e-08 -3.74627933003e-07 -1.74986677876e-05)
(-6.38278863144e-08 -3.33878172877e-07 -1.68439459926e-05)
(-7.48968127385e-08 -2.85906165933e-07 -1.62468101811e-05)
(-8.20023712816e-08 -2.32750200415e-07 -1.57342822659e-05)
(-8.41186239521e-08 -1.77479176233e-07 -1.53230842778e-05)
(-8.2068537935e-08 -1.23352651842e-07 -1.50199206672e-05)
(-7.76719044222e-08 -7.23270259252e-08 -1.48240333032e-05)
(-7.24570586081e-08 -2.35150821097e-08 -1.4728401484e-05)
(4.52310493781e-09 -3.13491355622e-07 -2.01774176479e-05)
(1.15767324779e-08 -3.10377553022e-07 -2.00119430267e-05)
(1.88807126791e-08 -3.10783786944e-07 -1.97024067841e-05)
(2.38758032289e-08 -3.12215376879e-07 -1.92619651993e-05)
(2.49062860158e-08 -3.10849982496e-07 -1.87097098247e-05)
(2.25296942134e-08 -3.03013493605e-07 -1.80874831945e-05)
(1.79769142144e-08 -2.87863449149e-07 -1.74297513916e-05)
(1.23713985773e-08 -2.65188641615e-07 -1.67650694897e-05)
(7.20868637226e-09 -2.35363333858e-07 -1.61261692043e-05)
(4.10282036182e-09 -1.99572037983e-07 -1.55443720082e-05)
(4.40401064742e-09 -1.5999582011e-07 -1.50446486628e-05)
(8.66601900577e-09 -1.19715318825e-07 -1.4642635081e-05)
(1.51022005605e-08 -8.16093817047e-08 -1.43450356113e-05)
(2.18048857132e-08 -4.68136293621e-08 -1.41520125064e-05)
(2.75068584566e-08 -1.49410605057e-08 -1.40551808272e-05)
(1.05138888065e-08 -1.44771575064e-07 -1.89852817576e-05)
(2.94073204485e-08 -1.46344679656e-07 -1.88128934104e-05)
(4.89146320922e-08 -1.49909954162e-07 -1.85135712126e-05)
(6.49643077669e-08 -1.57122776466e-07 -1.80894757329e-05)
(7.61047363195e-08 -1.63330355243e-07 -1.75565843794e-05)
(8.3274487313e-08 -1.64868216797e-07 -1.69566379614e-05)
(8.76575040645e-08 -1.60586188799e-07 -1.63245021119e-05)
(9.03938514315e-08 -1.50137461482e-07 -1.56882958429e-05)
(9.28671302383e-08 -1.33832679187e-07 -1.50785487754e-05)
(9.64751274853e-08 -1.12695642944e-07 -1.45233805513e-05)
(1.02344250601e-07 -8.86381059668e-08 -1.40453352514e-05)
(1.10848609993e-07 -6.44249581731e-08 -1.36589580372e-05)
(1.19832939614e-07 -4.2491141388e-08 -1.33703995992e-05)
(1.27665422959e-07 -2.31060378249e-08 -1.31809975579e-05)
(1.33244151492e-07 -6.92808219962e-09 -1.30831078063e-05)
(1.75079820135e-08 3.17321505069e-08 -1.72802561013e-05)
(4.94540167682e-08 2.84877572626e-08 -1.71125277745e-05)
(8.2403018341e-08 2.25080584546e-08 -1.68209471717e-05)
(1.10080663583e-07 9.0489978686e-09 -1.64242297972e-05)
(1.32501212043e-07 -5.55753472951e-09 -1.59261432111e-05)
(1.50053389362e-07 -1.78300060211e-08 -1.53668742598e-05)
(1.63840962924e-07 -2.62495123581e-08 -1.47791287396e-05)
(1.7485727543e-07 -3.01808322709e-08 -1.4189183291e-05)
(1.84307053947e-07 -2.96061116958e-08 -1.36248206715e-05)
(1.93444219897e-07 -2.50656897278e-08 -1.31105670036e-05)
(2.03339470108e-07 -1.79359709601e-08 -1.26660559395e-05)
(2.14274761237e-07 -1.04558710734e-08 -1.23047805679e-05)
(2.23947583772e-07 -4.71993730149e-09 -1.20325717102e-05)
(2.31778825736e-07 -5.50247585692e-10 -1.18513270326e-05)
(2.36636358135e-07 6.31318088423e-10 -1.17553604832e-05)
(2.58866307843e-08 2.08903363576e-07 -1.49338302714e-05)
(7.23274039033e-08 2.03754109973e-07 -1.47797466741e-05)
(1.17256487934e-07 1.91927457025e-07 -1.45209165634e-05)
(1.56783147343e-07 1.71632179466e-07 -1.41594967629e-05)
(1.89867644193e-07 1.47864733344e-07 -1.37156189141e-05)
(2.16911199183e-07 1.24327624099e-07 -1.32193123504e-05)
(2.38917102956e-07 1.02757205421e-07 -1.26989669118e-05)
(2.5678992602e-07 8.4107415163e-08 -1.21778399833e-05)
(2.71555371437e-07 6.88020602724e-08 -1.16800446572e-05)
(2.8441720648e-07 5.68850903933e-08 -1.12259517268e-05)
(2.96614767226e-07 4.75239553066e-08 -1.0831507772e-05)
(3.08465062711e-07 3.89576991328e-08 -1.05084229047e-05)
(3.17391772704e-07 2.93652712068e-08 -1.02628662441e-05)
(3.24269230624e-07 1.91359918674e-08 -1.00979644816e-05)
(3.27729632918e-07 7.01192298362e-09 -1.00105070331e-05)
(3.21876717488e-08 3.46103114075e-07 -1.181724139e-05)
(8.79746195801e-08 3.4455206882e-07 -1.16776319778e-05)
(1.43946539259e-07 3.27161937868e-07 -1.14507421517e-05)
(1.92820355129e-07 3.01626118407e-07 -1.11594180542e-05)
(2.3392035934e-07 2.70246643347e-07 -1.07982848706e-05)
(2.67722247971e-07 2.37122238456e-07 -1.03968481287e-05)
(2.94828519709e-07 2.04377724218e-07 -9.9762297784e-06)
(3.1628219568e-07 1.73323033246e-07 -9.55456381326e-06)
(3.33095431468e-07 1.44866264044e-07 -9.15148272546e-06)
(3.46595550927e-07 1.19563709236e-07 -8.78310391993e-06)
(3.58366257222e-07 9.69720559021e-08 -8.46163613923e-06)
(3.68928370696e-07 7.56277976546e-08 -8.19635015893e-06)
(3.75580701302e-07 5.39115442514e-08 -7.99367312372e-06)
(3.80978161739e-07 3.28487646739e-08 -7.85785019193e-06)
(3.83807011497e-07 1.13724535106e-08 -7.78675738025e-06)
(3.53151470755e-08 4.06153477036e-07 -7.74651548677e-06)
(9.75839574568e-08 3.96650776891e-07 -7.64873889574e-06)
(1.55600713788e-07 3.78385473044e-07 -7.4953065958e-06)
(2.05148670677e-07 3.50756514488e-07 -7.2908892158e-06)
(2.46503965379e-07 3.17017412201e-07 -7.04849199478e-06)
(2.79107295012e-07 2.80589458461e-07 -6.7786467151e-06)
(3.04523187479e-07 2.43496261724e-07 -6.4959701399e-06)
(3.2354290619e-07 2.07291680573e-07 -6.21248729918e-06)
(3.37243146936e-07 1.7314303784e-07 -5.94110525493e-06)
(3.47006416502e-07 1.41905585984e-07 -5.69265773615e-06)
(3.54554733861e-07 1.13423056587e-07 -5.47539405846e-06)
(3.60603199871e-07 8.65337452936e-08 -5.29570952195e-06)
(3.62735007393e-07 6.03996742018e-08 -5.15879210863e-06)
(3.667070741e-07 3.64084780803e-08 -5.06780911276e-06)
(3.66619890631e-07 1.25445139985e-08 -5.01780706062e-06)
(2.25938849997e-08 2.80634911099e-07 -2.69301108334e-06)
(5.93664368248e-08 2.6934456833e-07 -2.65372920586e-06)
(9.52719489903e-08 2.54303076537e-07 -2.59377190804e-06)
(1.25698144858e-07 2.32985105923e-07 -2.52303678088e-06)
(1.49767187233e-07 2.08170888155e-07 -2.43517657833e-06)
(1.6797262043e-07 1.8172889429e-07 -2.33798046337e-06)
(1.80624682188e-07 1.55232601545e-07 -2.23598020161e-06)
(1.88628466161e-07 1.29792597433e-07 -2.13338934131e-06)
(1.92873740471e-07 1.06272544296e-07 -2.03513316947e-06)
(1.94473135574e-07 8.51926220622e-08 -1.94534775169e-06)
(1.94702826024e-07 6.64370029464e-08 -1.86717344888e-06)
(1.94237323675e-07 4.93873239428e-08 -1.80309551449e-06)
(1.924962716e-07 3.39053302638e-08 -1.75517540912e-06)
(1.92139287417e-07 2.03439362435e-08 -1.72410293957e-06)
(1.89783446626e-07 6.99730461132e-09 -1.70705160067e-06)
(-2.79812606586e-08 -9.62801931763e-07 -2.18990620826e-05)
(-8.48586065772e-08 -9.5214212242e-07 -2.172511578e-05)
(-1.4107836308e-07 -9.29921119577e-07 -2.14032549928e-05)
(-1.94023153207e-07 -9.00747737501e-07 -2.09428774398e-05)
(-2.46347788978e-07 -8.63610997579e-07 -2.03786997625e-05)
(-2.97847306747e-07 -8.17183408063e-07 -1.97475728213e-05)
(-3.47881975892e-07 -7.61495252521e-07 -1.90769824153e-05)
(-3.95849137893e-07 -6.96994936482e-07 -1.83920384408e-05)
(-4.40807788051e-07 -6.241591553e-07 -1.77258881713e-05)
(-4.81629202146e-07 -5.4324645238e-07 -1.71138826633e-05)
(-5.17113219248e-07 -4.54680820871e-07 -1.65857114078e-05)
(-5.4582677633e-07 -3.59549071807e-07 -1.61609280804e-05)
(-5.66621708843e-07 -2.59427690152e-07 -1.58479228903e-05)
(-5.80120277248e-07 -1.57027765907e-07 -1.56467121157e-05)
(-5.84656332102e-07 -5.20066244998e-08 -1.55509932241e-05)
(-2.85251936394e-08 -8.50187121564e-07 -2.16282291292e-05)
(-8.3698130299e-08 -8.39839333429e-07 -2.1469001686e-05)
(-1.34245181358e-07 -8.17703868917e-07 -2.11398893665e-05)
(-1.83170776952e-07 -7.91370447222e-07 -2.06779418229e-05)
(-2.31382477186e-07 -7.57395368085e-07 -2.01093548044e-05)
(-2.78296734612e-07 -7.14328379823e-07 -1.94746039173e-05)
(-3.23047776785e-07 -6.62259571494e-07 -1.88016088515e-05)
(-3.64800346498e-07 -6.01768336197e-07 -1.81163793463e-05)
(-4.02387848001e-07 -5.33578990972e-07 -1.74531456792e-05)
(-4.34599720356e-07 -4.58489486459e-07 -1.68468554221e-05)
(-4.60301375374e-07 -3.77737763969e-07 -1.63260676397e-05)
(-4.78428318553e-07 -2.93427823217e-07 -1.59088038353e-05)
(-4.88913341988e-07 -2.08083106085e-07 -1.56018195026e-05)
(-4.94346070503e-07 -1.23968862468e-07 -1.54042544821e-05)
(-4.958919339e-07 -4.06782532189e-08 -1.53093530436e-05)
(-2.591838968e-08 -7.53112658455e-07 -2.11606331769e-05)
(-7.44574622514e-08 -7.39067245369e-07 -2.09774020024e-05)
(-1.20406307502e-07 -7.18105829891e-07 -2.06571286354e-05)
(-1.65662417121e-07 -6.93584496071e-07 -2.02021376335e-05)
(-2.10140862856e-07 -6.62130494423e-07 -1.96373530141e-05)
(-2.53110428381e-07 -6.21972876978e-07 -1.90041517297e-05)
(-2.93208445805e-07 -5.73273050086e-07 -1.83336109455e-05)
(-3.29322389024e-07 -5.16787976204e-07 -1.76535229574e-05)
(-3.60198357027e-07 -4.5360162705e-07 -1.69979283808e-05)
(-3.84832056376e-07 -3.85007303271e-07 -1.64002080644e-05)
(-4.02481241296e-07 -3.12760054747e-07 -1.58874528609e-05)
(-4.12702835904e-07 -2.39367711452e-07 -1.54766240017e-05)
(-4.16394182634e-07 -1.67453113814e-07 -1.51737874139e-05)
(-4.16498483106e-07 -9.87523067301e-08 -1.49772552311e-05)
(-4.15503293326e-07 -3.22540684413e-08 -1.48805982434e-05)
(-2.27538193249e-08 -6.45946977121e-07 -2.03445531959e-05)
(-6.72397416797e-08 -6.32564715301e-07 -2.01768479953e-05)
(-1.09388466603e-07 -6.14573647295e-07 -1.98666671876e-05)
(-1.49906829334e-07 -5.92348289174e-07 -1.94250974961e-05)
(-1.89534899751e-07 -5.64141598168e-07 -1.88714393938e-05)
(-2.27087772237e-07 -5.27930409528e-07 -1.82478906017e-05)
(-2.61169231254e-07 -4.83966664539e-07 -1.75886225416e-05)
(-2.90678918793e-07 -4.33146522368e-07 -1.69226038033e-05)
(-3.14571848367e-07 -3.76831627045e-07 -1.62826847776e-05)
(-3.32230117435e-07 -3.16582944174e-07 -1.56998819372e-05)
(-3.43347798971e-07 -2.54339615586e-07 -1.51994130919e-05)
(-3.47995531749e-07 -1.92592209545e-07 -1.47971852551e-05)
(-3.48076038229e-07 -1.33416301026e-07 -1.4499176081e-05)
(-3.46806643693e-07 -7.79693758762e-08 -1.43046029082e-05)