/*--------------------------------*- C++ -*----------------------------------*\
| =========                 |                                                 |
| \\      /  F ield         | foam-extend: Open Source CFD                    |
|  \\    /   O peration     | Version:     4.1                                |
|   \\  /    A nd           | Web:         http://www.foam-extend.org         |
|    \\/     M anipulation  |                                                 |
\*---------------------------------------------------------------------------*/
FoamFile
{
    version     2.0;
    format      ascii;
    class       vectorField;
    location    "1";
    object      solidsCellD_iteration8;
}
// * * * * * * * * * * * * * * * * * * * * * * * * * * * * * * * * * * * * * //


1050
(
(1.11472101063e-07 3.83478812878e-07 -3.27744872898e-05)
(3.16211197291e-07 3.6518653158e-07 -3.25143366169e-05)
(5.16146504876e-07 3.22901116035e-07 -3.20151863758e-05)
(7.00828929905e-07 2.63344449952e-07 -3.13086699419e-05)
(8.6730505365e-07 1.93849541812e-07 -3.04324915029e-05)
(1.01173106554e-06 1.20960939023e-07 -2.9425888804e-05)
(1.13067410917e-06 5.10120376844e-08 -2.83331899008e-05)
(1.22110634374e-06 -8.91876878686e-09 -2.72122415099e-05)
(1.28382910632e-06 -5.25304295527e-08 -2.61292524893e-05)
(1.32440796365e-06 -7.64154522777e-08 -2.51427650124e-05)
(1.3504914552e-06 -8.10528867695e-08 -2.42946431664e-05)
(1.36887748661e-06 -7.062058001e-08 -2.36104713843e-05)
(1.3834459648e-06 -5.12945015728e-08 -2.31026977124e-05)
(1.39511014296e-06 -2.96948237927e-08 -2.27733199924e-05)
(1.40077840545e-06 -9.65276435488e-09 -2.26148032751e-05)
(1.18713047737e-07 5.75327827699e-07 -3.22255107704e-05)
(3.35356489373e-07 5.49800349135e-07 -3.19681821081e-05)
(5.47399749984e-07 4.9744537644e-07 -3.14593929988e-05)
(7.41771645252e-07 4.25456211381e-07 -3.07477100134e-05)
(9.15876857463e-07 3.43023507194e-07 -2.98677757594e-05)
(1.06596741859e-06 2.58039671922e-07 -2.88593802013e-05)
(1.18953230325e-06 1.77620735343e-07 -2.77666539938e-05)
(1.28466385841e-06 1.09666334884e-07 -2.66501137551e-05)
(1.35375454106e-06 6.01419569457e-08 -2.5577775609e-05)
(1.40366175752e-06 3.07006837035e-08 -2.46066307096e-05)
(1.44240747729e-06 1.83854742523e-08 -2.37749825902e-05)
(1.47593343634e-06 1.66667088262e-08 -2.31051330579e-05)
(1.50590668578e-06 1.78674480435e-08 -2.26075682136e-05)
(1.53051294031e-06 1.54023042881e-08 -2.22837753522e-05)
(1.54356543407e-06 6.91843107827e-09 -2.21276533246e-05)
(1.34102724068e-07 8.87174428843e-07 -3.13449256715e-05)
(3.74399477909e-07 8.59066080334e-07 -3.10611021356e-05)
(6.08984956755e-07 7.9649410119e-07 -3.05508360615e-05)
(8.24421080965e-07 7.10177971132e-07 -2.98355974657e-05)
(1.01598396458e-06 6.1079295163e-07 -2.895532979e-05)
(1.18060401766e-06 5.07445035296e-07 -2.79495728717e-05)
(1.31638381223e-06 4.07984105083e-07 -2.6864807717e-05)
(1.42276467089e-06 3.20967162807e-07 -2.57630249066e-05)
(1.50371977098e-06 2.5211070293e-07 -2.47109165632e-05)
(1.56692768985e-06 2.01821221126e-07 -2.37618331315e-05)
(1.62009107466e-06 1.65744528056e-07 -2.29501087234e-05)
(1.66791482289e-06 1.36487608312e-07 -2.22952985874e-05)
(1.71037190497e-06 1.06529822072e-07 -2.18066046389e-05)
(1.74499349577e-06 6.98588010453e-08 -2.14860676219e-05)
(1.76270674089e-06 2.57254517726e-08 -2.1327838986e-05)
(1.52246615548e-07 1.32859783722e-06 -2.99723213072e-05)
(4.24026006717e-07 1.29503931403e-06 -2.97023730325e-05)
(6.93215312022e-07 1.2197662573e-06 -2.91927773226e-05)
(9.38758553812e-07 1.11340239359e-06 -2.8486790486e-05)
(1.15679887412e-06 9.88679208272e-07 -2.76194038843e-05)
(1.34365331846e-06 8.56566693639e-07 -2.66315672602e-05)
(1.49827979949e-06 7.26251333316e-07 -2.55711487134e-05)
(1.62151705529e-06 6.07151905273e-07 -2.44994851604e-05)
(1.7185413268e-06 5.05008257566e-07 -2.34800517614e-05)
(1.79734014936e-06 4.19680267839e-07 -2.25618603659e-05)
(1.86506679488e-06 3.46462905709e-07 -2.17754978772e-05)
(1.92545415557e-06 2.78158217324e-07 -2.11384528507e-05)
(1.97732327267e-06 2.0808987411e-07 -2.0659283803e-05)
(2.01836788644e-06 1.30860826582e-07 -2.03406893806e-05)
(2.03942551343e-06 4.64525361205e-08 -2.01779142051e-05)
(1.78589878252e-07 1.85421523914e-06 -2.80353192117e-05)
(4.93449722628e-07 1.81491941188e-06 -2.77579224454e-05)
(8.05862004043e-07 1.72392544443e-06 -2.7253753397e-05)
(1.08911311809e-06 1.59294227094e-06 -2.6566028363e-05)
(1.33926170121e-06 1.43679696273e-06 -2.57271437147e-05)
(1.55261453203e-06 1.26843827564e-06 -2.47775224193e-05)
(1.7292344176e-06 1.09864406879e-06 -2.37640795141e-05)
(1.87127240167e-06 9.37693420806e-07 -2.27448146072e-05)
(1.98470264539e-06 7.91704617203e-07 -2.17777064332e-05)
(2.07747890608e-06 6.60887666494e-07 -2.09064289814e-05)
(2.15629040865e-06 5.41296383564e-07 -2.01579104635e-05)
(2.22457857215e-06 4.26865713144e-07 -1.95481689142e-05)
(2.28111469614e-06 3.12022827256e-07 -1.90862549865e-05)
(2.32450847605e-06 1.92125166387e-07 -1.87755797868e-05)
(2.34584070422e-06 6.71051505832e-08 -1.86119001317e-05)
(2.09474081542e-07 2.42708323769e-06 -2.53212758214e-05)
(5.73034420418e-07 2.37903109058e-06 -2.50524067181e-05)
(9.33617320456e-07 2.26728514068e-06 -2.45678255555e-05)
(1.25784096472e-06 2.10742871873e-06 -2.39217243402e-05)
(1.5423857364e-06 1.91435805085e-06 -2.31400670762e-05)
(1.78328561386e-06 1.70394483377e-06 -2.22607579191e-05)
(1.98177273264e-06 1.48837504641e-06 -2.132723262e-05)
(2.14105602509e-06 1.27891270912e-06 -2.03914833245e-05)
(2.2676730087e-06 1.08253822082e-06 -1.95041137113e-05)
(2.36955937409e-06 9.00629512235e-07 -1.87029603765e-05)
(2.453379656e-06 7.30748230901e-07 -1.80117604032e-05)
(2.52304649298e-06 5.68396883456e-07 -1.74451731741e-05)
(2.57816854392e-06 4.09015701351e-07 -1.70126347271e-05)
(2.61898057024e-06 2.4830499929e-07 -1.67183068342e-05)
(2.63740151068e-06 8.58927697492e-08 -1.65581396967e-05)
(2.41195820248e-07 2.96540694779e-06 -2.16699213626e-05)
(6.51758759666e-07 2.90754959677e-06 -2.14093323146e-05)
(1.05824118623e-06 2.77290386847e-06 -2.0976400375e-05)
(1.4201224722e-06 2.58155058255e-06 -2.03995447092e-05)
(1.73358420177e-06 2.35073355126e-06 -1.97112263083e-05)
(1.99611107691e-06 2.09762948217e-06 -1.89411239103e-05)
(2.20973225645e-06 1.83614365033e-06 -1.81274071808e-05)
(2.37874998024e-06 1.57851069107e-06 -1.73137455175e-05)
(2.51025553657e-06 1.33287543269e-06 -1.65415126718e-05)
(2.6124298394e-06 1.10227887261e-06 -1.58419904773e-05)
(2.69251585059e-06 8.86069053183e-07 -1.52361988122e-05)
(2.75558520613e-06 6.81262069503e-07 -1.47376313784e-05)
(2.80254118001e-06 4.84171209658e-07 -1.43549553923e-05)
(2.83550377981e-06 2.9060347809e-07 -1.4091881435e-05)
(2.84770993559e-06 9.98411300475e-08 -1.39440951973e-05)
(2.64601869806e-07 3.33182852705e-06 -1.68928661341e-05)
(7.03921002153e-07 3.26027219292e-06 -1.6680353938e-05)
(1.13771098565e-06 3.1057413865e-06 -1.6309729549e-05)
(1.51788140032e-06 2.8884021807e-06 -1.58463458968e-05)
(1.84268126099e-06 2.62726172623e-06 -1.52936818014e-05)
(2.10969101871e-06 2.34143736813e-06 -1.46809262819e-05)
(2.322240994e-06 2.04568216201e-06 -1.40366717198e-05)
(2.48565205091e-06 1.75295288842e-06 -1.33940028663e-05)
(2.6077159918e-06 1.47245965628e-06 -1.27833748578e-05)
(2.69716538342e-06 1.20878559469e-06 -1.22282710278e-05)
(2.76224982329e-06 9.62792731152e-07 -1.17464015629e-05)
(2.80946709346e-06 7.32566444839e-07 -1.13497616459e-05)
(2.84117456337e-06 5.15064005303e-07 -1.10451069461e-05)
(2.86117625813e-06 3.06191008465e-07 -1.08339147741e-05)
(2.86513930402e-06 1.04738785405e-07 -1.07109524725e-05)
(2.54521155053e-07 3.20107049745e-06 -1.09201607434e-05)
(6.67052052732e-07 3.1198592946e-06 -1.075460303e-05)
(1.0710588945e-06 2.96180945533e-06 -1.05168006086e-05)
(1.41936436402e-06 2.74583249309e-06 -1.02054641875e-05)
(1.71054356934e-06 2.48884009663e-06 -9.84390122039e-06)
(1.94376115267e-06 2.20905988443e-06 -9.44289560149e-06)
(2.12314353397e-06 1.92072201981e-06 -9.02289999786e-06)
(2.25451160145e-06 1.63610169977e-06 -8.60493064181e-06)
(2.34596196241e-06 1.36421364785e-06 -8.20761153875e-06)
(2.40632146226e-06 1.11021784647e-06 -7.84544971097e-06)
(2.44425895954e-06 8.75746200859e-07 -7.53071962538e-06)
(2.46697107287e-06 6.59422456893e-07 -7.27202259553e-06)
(2.47778513327e-06 4.59030819225e-07 -7.07293222598e-06)
(2.48177575179e-06 2.70299906728e-07 -6.93329177216e-06)
(2.4769278551e-06 9.21910591425e-08 -6.8473770134e-06)
(1.65734022355e-07 2.06761388605e-06 -3.94610455103e-06)
(4.25511058732e-07 2.00041545622e-06 -3.88906008894e-06)
(6.77513004708e-07 1.88635479747e-06 -3.79445843361e-06)
(8.90759628415e-07 1.73512374952e-06 -3.68371209536e-06)
(1.06293410912e-06 1.55877961838e-06 -3.55197588623e-06)
(1.19426790216e-06 1.36934282818e-06 -3.40733422542e-06)
(1.28801594295e-06 1.176806029e-06 -3.25637609237e-06)
(1.34925382512e-06 9.89474816179e-07 -3.10674564228e-06)
(1.38434747291e-06 8.13440995404e-07 -2.96485547053e-06)
(1.40012967448e-06 6.52161658901e-07 -2.83564096255e-06)
(1.40321962561e-06 5.0667551565e-07 -2.72380432429e-06)
(1.39918164586e-06 3.75899798229e-07 -2.63253716965e-06)
(1.39114628788e-06 2.58327803488e-07 -2.56214007506e-06)
(1.38230567212e-06 1.50531685768e-07 -2.51295996458e-06)
(1.37566143628e-06 5.1315865731e-08 -2.48078041108e-06)
(6.56351888359e-08 -2.81631451146e-08 -3.29071020341e-05)
(1.87238355309e-07 -3.32148892949e-08 -3.26421097064e-05)
(3.0521387481e-07 -4.98730242116e-08 -3.21441338645e-05)
(4.14794828514e-07 -7.50283598091e-08 -3.14397000558e-05)
(5.13518368351e-07 -1.03890328374e-07 -3.05660145266e-05)
(5.98811870364e-07 -1.31984656498e-07 -2.9560782187e-05)
(6.68311032598e-07 -1.55490041784e-07 -2.84673864318e-05)
(7.2049771871e-07 -1.70657110614e-07 -2.73446311026e-05)
(7.56788090249e-07 -1.74480916346e-07 -2.62599837669e-05)
(7.81475645698e-07 -1.65607473161e-07 -2.52722646799e-05)
(7.99682438698e-07 -1.44872754821e-07 -2.44229426976e-05)
(8.15513751371e-07 -1.1545127971e-07 -2.37375886848e-05)
(8.30540353751e-07 -8.1628639573e-08 -2.32290922474e-05)
(8.44809604828e-07 -4.82641815139e-08 -2.28999600454e-05)
(8.5768318907e-07 -1.58749558048e-08 -2.2742116378e-05)
(6.94317223099e-08 1.06828424638e-07 -3.23510662559e-05)
(1.98703289967e-07 9.88170873094e-08 -3.20960188684e-05)
(3.26002799619e-07 7.72251708277e-08 -3.15887462826e-05)
(4.42445690628e-07 4.48987227088e-08 -3.08780414981e-05)
(5.46845843256e-07 8.52204366895e-09 -2.99983311867e-05)
(6.36566991272e-07 -2.66778805432e-08 -2.89885409692e-05)
(7.09964392916e-07 -5.6436590063e-08 -2.78925756576e-05)
(7.66317522573e-07 -7.66481095475e-08 -2.677203804e-05)
(8.0797481799e-07 -8.46731275601e-08 -2.56960716154e-05)
(8.39812073883e-07 -8.0367178836e-08 -2.4721981182e-05)
(8.66998750058e-07 -6.62037085259e-08 -2.38878263689e-05)
(8.93004505237e-07 -4.68732450008e-08 -2.32160692943e-05)
(9.17800742962e-07 -2.77086299516e-08 -2.27173683527e-05)
(9.40054378894e-07 -1.30786085984e-08 -2.23934766934e-05)
(9.56875079481e-07 -3.1597376701e-09 -2.22375552139e-05)
(7.97706158083e-08 3.22408528425e-07 -3.14926423303e-05)
(2.24806640487e-07 3.14999992371e-07 -3.12100581207e-05)
(3.65751523743e-07 2.85692696502e-07 -3.07009236916e-05)
(4.95136833509e-07 2.42908440523e-07 -2.9985739413e-05)
(6.10058895915e-07 1.93999111988e-07 -2.91044770476e-05)
(7.0850974188e-07 1.45394377581e-07 -2.80960587571e-05)
(7.89548992196e-07 1.02028285306e-07 -2.70069301953e-05)
(8.53386893374e-07 6.84855355467e-08 -2.59001029226e-05)
(9.03199514101e-07 4.70907241743e-08 -2.48433562425e-05)
(9.44057311986e-07 3.70035164184e-08 -2.38904700848e-05)
(9.80696147311e-07 3.47425048288e-08 -2.30756602977e-05)
(1.01570406535e-06 3.50459755986e-08 -2.24186856169e-05)
(1.04782277372e-06 3.26419831506e-08 -2.19287188535e-05)
(1.07590185585e-06 2.39728497657e-08 -2.16078027716e-05)
(1.09411763115e-06 9.28129493181e-09 -2.1449270594e-05)
(9.17769574063e-08 6.34465481882e-07 -3.01361754347e-05)
(2.57036927908e-07 6.21617404491e-07 -2.9864834264e-05)
(4.20260820405e-07 5.82076400022e-07 -2.93570185572e-05)
(5.69233371487e-07 5.24144619753e-07 -2.86506890912e-05)
(7.01173793195e-07 4.56449376151e-07 -2.77822182601e-05)
(8.14103037507e-07 3.86816336029e-07 -2.67915983716e-05)
(9.07594193182e-07 3.21119460728e-07 -2.57268662493e-05)
(9.82683359145e-07 2.64601707086e-07 -2.46502141197e-05)
(1.04313549908e-06 2.19597152271e-07 -2.36260058211e-05)
(1.09402709593e-06 1.84895540352e-07 -2.27036713001e-05)
(1.13966580549e-06 1.56787479127e-07 -2.19137469714e-05)
(1.18206364326e-06 1.30171472139e-07 -2.12740083591e-05)
(1.21912746617e-06 1.00308865137e-07 -2.07933019974e-05)
(1.25028970486e-06 6.44222322552e-08 -2.04743129379e-05)
(1.26860042496e-06 2.26384418474e-08 -2.03110547053e-05)
(1.08742838161e-07 1.00491070242e-06 -2.82062388324e-05)
(3.02833016818e-07 9.86516394944e-07 -2.79291658801e-05)
(4.94914861627e-07 9.35150531552e-07 -2.7426294217e-05)
(6.68764193768e-07 8.58831408713e-07 -2.67385971463e-05)
(8.2184348309e-07 7.68285434941e-07 -2.58988791208e-05)
(9.52288707013e-07 6.72426013916e-07 -2.49466626285e-05)
(1.06031183742e-06 5.78223825574e-07 -2.39291035897e-05)
(1.1477176102e-06 4.91637091497e-07 -2.29048255607e-05)
(1.21864586389e-06 4.15400670687e-07 -2.1932502203e-05)
(1.27805723908e-06 3.48660473493e-07 -2.10562663186e-05)
(1.32998125717e-06 2.8826978986e-07 -2.0303125141e-05)
(1.37636789541e-06 2.29918204765e-07 -1.96893521023e-05)
(1.41511010725e-06 1.69522500382e-07 -1.92245179151e-05)
(1.44671658566e-06 1.0507204401e-07 -1.89122795754e-05)
(1.46306346801e-06 3.59930864353e-08 -1.87472416834e-05)
(1.28675242939e-07 1.40681942956e-06 -2.54867657419e-05)
(3.55037246252e-07 1.38242685744e-06 -2.52200714578e-05)
(5.78716556231e-07 1.3160386192e-06 -2.47346083784e-05)
(7.79300536673e-07 1.21888973597e-06 -2.40880654825e-05)
(9.55051327516e-07 1.10204129124e-06 -2.33047079894e-05)
(1.10361748656e-06 9.76104695496e-07 -2.24221651091e-05)
(1.22594255887e-06 8.49034950502e-07 -2.1484134217e-05)
(1.32439697306e-06 7.27612061857e-07 -2.05429996536e-05)
(1.40336305873e-06 6.15400458767e-07 -1.9649800666e-05)
(1.46776578812e-06 5.1255536071e-07 -1.88427901472e-05)
(1.52173501726e-06 4.17030834396e-07 -1.81460494092e-05)
(1.56766903828e-06 3.25563535032e-07 -1.75746302286e-05)
(1.60396398209e-06 2.34687871355e-07 -1.71385284881e-05)
(1.63270795355e-06 1.42689674736e-07 -1.68421766055e-05)
(1.64475213087e-06 4.82682613915e-08 -1.66806812551e-05)
(1.48926217865e-07 1.7784626898e-06 -2.18084821107e-05)
(4.05773681546e-07 1.74753408991e-06 -2.15442222618e-05)
(6.57916496556e-07 1.66499135384e-06 -2.1112902595e-05)
(8.82476536037e-07 1.54639625233e-06 -2.05353614567e-05)
(1.07654511859e-06 1.40351927224e-06 -1.9845228824e-05)
(1.23859642449e-06 1.24800082838e-06 -1.90718145317e-05)
(1.370106227e-06 1.0888162045e-06 -1.82536350001e-05)
(1.47404070545e-06 9.33547024287e-07 -1.74345911098e-05)
(1.5550377941e-06 7.86785051143e-07 -1.66562683939e-05)
(1.61820900487e-06 6.5003656728e-07 -1.59502848908e-05)
(1.66825548752e-06 5.2253200156e-07 -1.53383486532e-05)
(1.70846547426e-06 4.01950167535e-07 -1.48347107527e-05)
(1.73786782716e-06 2.85356065203e-07 -1.44485841546e-05)
(1.76035262777e-06 1.71044762275e-07 -1.41835022445e-05)
(1.76601238858e-06 5.73457047332e-08 -1.40343703631e-05)
(1.61747064461e-07 2.01612289375e-06 -1.69697240827e-05)
(4.34429407617e-07 1.97733569408e-06 -1.67569794811e-05)
(7.02294456612e-07 1.88203703099e-06 -1.6386145556e-05)
(9.36417512521e-07 1.74688996381e-06 -1.59219486802e-05)
(1.13553234553e-06 1.58465527469e-06 -1.53672542549e-05)
(1.29835486461e-06 1.40786419151e-06 -1.47513768977e-05)
(1.42702471257e-06 1.22614589323e-06 -1.41030086905e-05)
(1.52521412139e-06 1.04758728872e-06 -1.34552807575e-05)
(1.59796125682e-06 8.77666787169e-07 -1.28386601668e-05)
(1.65080485042e-06 7.1904997847e-07 -1.22768802466e-05)
(1.68926286069e-06 5.71978581442e-07 -1.17884809563e-05)
(1.71755447415e-06 4.34768562731e-07 -1.13862550498e-05)
(1.73541935183e-06 3.04910986596e-07 -1.10772757089e-05)
(1.7484622236e-06 1.80706720852e-07 -1.08625341991e-05)
(1.74717368598e-06 6.01928597406e-08 -1.07366734042e-05)
(1.52062865252e-07 1.90525853137e-06 -1.08920952417e-05)
(4.04262601623e-07 1.85805286149e-06 -1.07248231278e-05)
(6.47830538745e-07 1.76198571149e-06 -1.04870325312e-05)
(8.5668932744e-07 1.63007236681e-06 -1.01747594772e-05)
(1.03003968188e-06 1.4732886907e-06 -9.81155224668e-06)
(1.16712451317e-06 1.30346248928e-06 -9.40806738188e-06)
(1.27110459468e-06 1.12943563584e-06 -8.98465280907e-06)
(1.34578838994e-06 9.58820864966e-07 -8.56227981458e-06)
(1.39638307126e-06 7.96964339763e-07 -8.15956442179e-06)
(1.42847760392e-06 6.46871426196e-07 -7.79128213454e-06)
(1.44777380524e-06 5.09241147343e-07 -7.47043342928e-06)
(1.45876445016e-06 3.82705356837e-07 -7.20604392447e-06)
(1.46187729807e-06 2.65582536501e-07 -7.00184970412e-06)
(1.46418927558e-06 1.55740416136e-07 -6.85762856279e-06)
(1.45560184199e-06 5.1443256552e-08 -6.76994647654e-06)
(8.53310903049e-08 1.09001240606e-06 -3.71903626981e-06)
(2.24586663595e-07 1.05161294789e-06 -3.66262507151e-06)
(3.56942643209e-07 9.88263479616e-07 -3.57047034569e-06)
(4.67918118637e-07 9.04547357072e-07 -3.46194581584e-06)
(5.55786994025e-07 8.07640625156e-07 -3.33304352069e-06)
(6.20953895793e-07 7.04522086562e-07 -3.19102162483e-06)
(6.6535843164e-07 6.0087416675e-07 -3.04225101157e-06)
(6.92162752442e-07 5.01312259986e-07 -2.89414372372e-06)
(7.05146698496e-07 4.09066371949e-07 -2.75294998702e-06)
(7.08290214565e-07 3.25822023321e-07 -2.62367051625e-06)
(7.05466165418e-07 2.5180507326e-07 -2.51126841056e-06)
(6.99759831715e-07 1.85899300554e-07 -2.41892152021e-06)
(6.92095378141e-07 1.271936143e-07 -2.34711852779e-06)
(6.85580109752e-07 7.36958131676e-08 -2.29696848169e-06)
(6.78212526631e-07 2.38111595098e-08 -2.26499329075e-06)
(1.5921667208e-08 -5.46134703337e-07 -3.30709796497e-05)
(4.35550770061e-08 -5.4427964794e-07 -3.28036697308e-05)
(6.95547703449e-08 -5.36325163091e-07 -3.23077447938e-05)
(9.35545283401e-08 -5.28718326259e-07 -3.160435693e-05)
(1.13670624843e-07 -5.19053031373e-07 -3.0731273812e-05)
(1.29041128891e-07 -5.04363671121e-07 -2.97259809782e-05)
(1.38763377816e-07 -4.82793096162e-07 -2.86319048913e-05)
(1.42516444189e-07 -4.52800103635e-07 -2.75083258766e-05)
(1.41645955292e-07 -4.13347068969e-07 -2.64228536506e-05)
(1.38761784729e-07 -3.6407198247e-07 -2.54340128075e-05)
(1.36612738616e-07 -3.05660350723e-07 -2.45830325641e-05)
(1.37304520754e-07 -2.40379440032e-07 -2.38959002629e-05)
(1.40841043517e-07 -1.71287682433e-07 -2.33859195907e-05)
(1.4558088819e-07 -1.02815961087e-07 -2.30556375207e-05)
(1.5251354783e-07 -3.44111574578e-08 -2.28962932607e-05)
(1.69806579065e-08 -4.2637519453e-07 -3.24961171753e-05)
(4.83388423679e-08 -4.25248521073e-07 -3.22423159184e-05)
(8.14519059416e-08 -4.18340504511e-07 -3.1736067306e-05)
(1.10565535678e-07 -4.14490444078e-07 -3.10250697439e-05)
(1.35393885712e-07 -4.08759002384e-07 -3.01446409756e-05)
(1.5509251018e-07 -3.97915235775e-07 -2.91333174945e-05)
(1.69193157416e-07 -3.79932901581e-07 -2.803551053e-05)
(1.77943838546e-07 -3.53277909374e-07 -2.69134068602e-05)
(1.83316942728e-07 -3.1736669835e-07 -2.58362402049e-05)
(1.88274441487e-07 -2.72809633375e-07 -2.48609221891e-05)
(1.95568603292e-07 -2.21616901312e-07 -2.40252021092e-05)
(2.06792114622e-07 -1.67364621088e-07 -2.33519715753e-05)
(2.20422048667e-07 -1.14278769986e-07 -2.28521507793e-05)
(2.33135388691e-07 -6.59246309391e-08 -2.25275559703e-05)
(2.43376037278e-07 -2.10871536534e-08 -2.23701135934e-05)
(2.29288790275e-08 -2.72058213653e-07 -3.16424946005e-05)
(6.39515833594e-08 -2.66224856449e-07 -3.13635158092e-05)
(1.0490454231e-07 -2.63627963524e-07 -3.08531461704e-05)
(1.41558478383e-07 -2.65603929753e-07 -3.0137115316e-05)
(1.73018752313e-07 -2.67009526184e-07 -2.92541273285e-05)
(1.9865176484e-07 -2.63916915749e-07 -2.82429730681e-05)
(2.18571130719e-07 -2.54002047277e-07 -2.71507633147e-05)
(2.33628144288e-07 -2.35630129851e-07 -2.60411310904e-05)
(2.46195114296e-07 -2.0868028904e-07 -2.49820459479e-05)
(2.59116573835e-07 -1.74612131251e-07 -2.40270500732e-05)
(2.74634571001e-07 -1.3624145734e-07 -2.32101325362e-05)
(2.93538816275e-07 -9.7550757943e-08 -2.2551400469e-05)
(3.1318374361e-07 -6.27322711939e-08 -2.20601700645e-05)
(3.30487821383e-07 -3.42136026851e-08 -2.17384417587e-05)
(3.42394041471e-07 -1.04875528056e-08 -2.15782073723e-05)
(2.97374267157e-08 -5.83446699292e-08 -3.03002820691e-05)
(8.19180985345e-08 -5.68660327693e-08 -3.00264339302e-05)
(1.35286585561e-07 -6.12139407949e-08 -2.95173094784e-05)
(1.83570996435e-07 -7.21955338512e-08 -2.88097528454e-05)
(2.25473453915e-07 -8.47481082477e-08 -2.79393444746e-05)
(2.60621831627e-07 -9.41824434619e-08 -2.694576786e-05)
(2.89372587427e-07 -9.78038976656e-08 -2.58776411813e-05)
(3.12951274396e-07 -9.37860086649e-08 -2.47976646534e-05)
(3.33843575595e-07 -8.22441535443e-08 -2.37703946043e-05)
(3.54611764947e-07 -6.50067146654e-08 -2.28451475531e-05)
(3.77016196947e-07 -4.50639221882e-08 -2.20523605688e-05)
(4.01339297954e-07 -2.6187305813e-08 -2.14101438543e-05)
(4.24121347009e-07 -1.20139864583e-08 -2.09274668867e-05)
(4.42897526715e-07 -3.79713608338e-09 -2.06070191453e-05)
(4.54843069669e-07 -4.81330526748e-10 -2.04411846675e-05)
(3.91289596561e-08 1.82833368735e-07 -2.83703043049e-05)
(1.0808725481e-07 1.79325997666e-07 -2.80898377202e-05)
(1.78510695261e-07 1.67821655855e-07 -2.75869161266e-05)
(2.41832511796e-07 1.4589825783e-07 -2.68983673325e-05)
(2.96822629456e-07 1.19936821707e-07 -2.60570379794e-05)
(3.43325677296e-07 9.49756914742e-08 -2.51021418638e-05)
(3.81950671058e-07 7.41327506762e-08 -2.40813301021e-05)
(4.14217448323e-07 5.94979118694e-08 -2.30535909406e-05)
(4.42584427294e-07 5.10775329298e-08 -2.20777483752e-05)
(4.69320843765e-07 4.7258416085e-08 -2.11979328352e-05)
(4.95919097653e-07 4.54710164962e-08 -2.04412370769e-05)
(5.22630507704e-07 4.25964728345e-08 -1.98243387126e-05)
(5.45829852882e-07 3.55966593517e-08 -1.93569725873e-05)
(5.64163550462e-07 2.42549047496e-08 -1.90430361354e-05)
(5.75115141991e-07 8.71202734543e-09 -1.88756548121e-05)
(5.03529240413e-08 4.39711305632e-07 -2.56426619276e-05)
(1.38217403473e-07 4.32446887261e-07 -2.53759926287e-05)
(2.27422732821e-07 4.12161447856e-07 -2.4889941835e-05)
(3.06975021584e-07 3.77824874382e-07 -2.42423276335e-05)
(3.76284241286e-07 3.36321432208e-07 -2.34569774482e-05)
(4.34736764632e-07 2.9325534973e-07 -2.25715504761e-05)
(4.83214436735e-07 2.52209804161e-07 -2.16301196561e-05)
(5.23343606981e-07 2.15678176561e-07 -2.06852780177e-05)
(5.5746912478e-07 1.84184689184e-07 -1.97881063843e-05)
(5.87685176352e-07 1.56838095453e-07 -1.89768932174e-05)
(6.15569072934e-07 1.31856905158e-07 -1.82760316043e-05)
(6.41734209976e-07 1.06895570047e-07 -1.77011337318e-05)
(6.62695565248e-07 7.9425294102e-08 -1.72623659713e-05)
(6.78759835781e-07 4.96622153962e-08 -1.69644243951e-05)
(6.87660201936e-07 1.70057833243e-08 -1.68010779607e-05)
(6.22543274351e-08 6.79460008701e-07 -2.1945794732e-05)
(1.69090450128e-07 6.68565129816e-07 -2.16808652549e-05)
(2.75070912619e-07 6.38317704621e-07 -2.12496724745e-05)
(3.69759714463e-07 5.91347632222e-07 -2.06715987201e-05)
(4.51375223243e-07 5.34234541183e-07 -1.99798682238e-05)
(5.19498592792e-07 4.73179044205e-07 -1.92040374223e-05)
(5.75233862869e-07 4.12125307131e-07 -1.83828400434e-05)
(6.2027552869e-07 3.540511159e-07 -1.75602728008e-05)
(6.56869646975e-07 3.00192590612e-07 -1.67778937462e-05)
(6.87124443601e-07 2.50609201719e-07 -1.60674043889e-05)
(7.13071033705e-07 2.04372719634e-07 -1.54510495678e-05)
(7.35956606132e-07 1.59775709171e-07 -1.49436984045e-05)
(7.52357218764e-07 1.14724864906e-07 -1.45545454503e-05)
(7.64696649372e-07 6.95090250956e-08 -1.42871666484e-05)
(7.70640559782e-07 2.33700687368e-08 -1.41354486901e-05)
(7.01132676052e-08 8.42732668471e-07 -1.70708370412e-05)
(1.8776651244e-07 8.29540649905e-07 -1.68576834711e-05)
(3.05380488246e-07 7.9140801336e-07 -1.64876916073e-05)
(4.0819274398e-07 7.34486163907e-07 -1.60227353583e-05)
(4.95378970758e-07 6.65550319255e-07 -1.546697561e-05)
(5.66773503687e-07 5.90924922539e-07 -1.4849176364e-05)
(6.23511247911e-07 5.15028561061e-07 -1.41982534203e-05)
(6.67556924584e-07 4.41161912074e-07 -1.35473054814e-05)
(7.01200462833e-07 3.71260522956e-07 -1.29267312942e-05)
(7.26776254486e-07 3.06195042825e-07 -1.23604373616e-05)
(7.46910478587e-07 2.45659745816e-07 -1.18675929508e-05)
(7.63383056426e-07 1.8838230952e-07 -1.14613263757e-05)
(7.72942040604e-07 1.32628730537e-07 -1.11483779032e-05)
(7.8049423378e-07 7.87432892513e-08 -1.09298721845e-05)
(7.83324440332e-07 2.61607512875e-08 -1.08007981331e-05)
(6.81472285239e-08 8.3067298199e-07 -1.0933018676e-05)
(1.82351824892e-07 8.11733219323e-07 -1.07659554513e-05)
(2.92448569925e-07 7.7154874641e-07 -1.05270566628e-05)
(3.86528470356e-07 7.14421284593e-07 -1.02144584203e-05)
(4.64428978671e-07 6.45939545098e-07 -9.85014748656e-06)
(5.2567013144e-07 5.72053048527e-07 -9.44524797155e-06)
(5.72320649122e-07 4.96605815958e-07 -9.0198712914e-06)
(6.0619972159e-07 4.22876947171e-07 -8.59487287238e-06)
(6.29670614966e-07 3.52971060345e-07 -8.18881363501e-06)
(6.45174953215e-07 2.88090878651e-07 -7.81671264007e-06)
(6.55479663617e-07 2.28281594746e-07 -7.49207152765e-06)
(6.62490871552e-07 1.72503327791e-07 -7.2238399525e-06)
(6.63662657159e-07 1.19771880857e-07 -7.01563950326e-06)
(6.66726775482e-07 7.02643005327e-08 -6.86784592648e-06)
(6.64591075951e-07 2.31231904315e-08 -6.77968768785e-06)
(3.71337464242e-08 4.71783067255e-07 -3.67409212579e-06)
(9.85125599305e-08 4.54371536244e-07 -3.6172739649e-06)
(1.56985741161e-07 4.27086433265e-07 -3.52631269513e-06)
(2.06150539565e-07 3.90497699132e-07 -3.4184336571e-06)
(2.44732073715e-07 3.48103729541e-07 -3.29058694749e-06)
(2.73187798098e-07 3.03238578296e-07 -3.14947110753e-06)
(2.92379410451e-07 2.58424383441e-07 -3.00139097097e-06)
(3.03846561973e-07 2.15624250417e-07 -2.85362283093e-06)
(3.09296239914e-07 1.76159135226e-07 -2.71234990641e-06)
(3.10510181984e-07 1.40689487502e-07 -2.58268195298e-06)
(3.09317345539e-07 1.09160605773e-07 -2.4697364968e-06)
(3.07072200237e-07 8.07174624186e-08 -2.37653458375e-06)
(3.03131604252e-07 5.52396946046e-08 -2.30390428691e-06)
(3.00901890394e-07 3.20431952551e-08 -2.25339881541e-06)
(2.97063852713e-07 1.0278367024e-08 -2.22203446614e-06)
(-3.40704572448e-08 -1.1583525904e-06 -3.32532283156e-05)
(-1.01921559991e-07 -1.13916996558e-06 -3.29877512037e-05)
(-1.69249470394e-07 -1.10515354371e-06 -3.24933571005e-05)
(-2.33217774783e-07 -1.06252676545e-06 -3.17909624377e-05)
(-2.94233703789e-07 -1.01149649726e-06 -3.09181667811e-05)
(-3.51691066511e-07 -9.50618051471e-07 -2.99123768741e-05)
(-4.05298884985e-07 -8.80042091579e-07 -2.88171778305e-05)
(-4.54642939268e-07 -8.00317448741e-07 -2.76921784273e-05)
(-4.9867372243e-07 -7.12071983104e-07 -2.66051751302e-05)
(-5.36172886813e-07 -6.15671375709e-07 -2.56144755293e-05)
(-5.66070378725e-07 -5.11590143039e-07 -2.47611482799e-05)
(-5.87294675515e-07 -4.01279138213e-07 -2.40717296312e-05)
(-5.99954899913e-07 -2.86856216061e-07 -2.35601321087e-05)
(-6.06570845478e-07 -1.72279622552e-07 -2.32288304759e-05)
(-6.09022995247e-07 -5.7627846159e-08 -2.306814426e-05)
(-3.58235731467e-08 -1.03466294578e-06 -3.26731424483e-05)
(-1.05043218975e-07 -1.01758746555e-06 -3.2420742522e-05)
(-1.68904018284e-07 -9.82110315553e-07 -3.19153218585e-05)
(-2.29790536237e-07 -9.41090303653e-07 -3.12048023528e-05)
(-2.87104548559e-07 -8.91865391124e-07 -3.03240752236e-05)
(-3.40130821841e-07 -8.33046353675e-07 -2.9311666636e-05)
(-3.88367893773e-07 -7.64837028794e-07 -2.82124184986e-05)
(-4.31037248913e-07 -6.87988507396e-07 -2.70888675389e-05)
(-4.66784453681e-07 -6.0354022777e-07 -2.60103132325e-05)
(-4.94335241637e-07 -5.12609216375e-07 -2.50333078044e-05)
(-5.12779343626e-07 -4.16827997301e-07 -2.41954178684e-05)
(-5.21631924156e-07 -3.18973312867e-07 -2.35200945198e-05)
(-5.22549386397e-07 -2.22547136366e-07 -2.30187687881e-05)
(-5.20085820085e-07 -1.3079430293e-07 -2.26931999663e-05)
(-5.18417693438e-07 -4.2652120248e-08 -2.25340610591e-05)
(-3.40015928728e-08 -9.25981403621e-07 -3.18181728732e-05)
(-9.93409978086e-08 -9.02987216683e-07 -3.15411755247e-05)
(-1.59913070532e-07 -8.68101089741e-07 -3.10301356041e-05)
(-2.17283918009e-07 -8.28163348093e-07 -3.03143748495e-05)
(-2.70657596585e-07 -7.80628323331e-07 -2.94305781168e-05)
(-3.19324061492e-07 -7.24007938634e-07 -2.84178627975e-05)
(-3.62317846018e-07 -6.58632512467e-07 -2.73239153801e-05)
(-3.98500403105e-07 -5.85525249835e-07 -2.62127028743e-05)
(-4.26464790646e-07 -5.06315513421e-07 -2.51521876606e-05)
(-4.45332307122e-07 -4.22855040749e-07 -2.41955313862e-05)
(-4.54840753822e-07 -3.37445635653e-07 -2.33765737091e-05)
(-4.55409278797e-07 -2.53205957226e-07 -2.27158779561e-05)
(-4.49931471057e-07 -1.73468423169e-07 -2.22230814359e-05)
(-4.43269364026e-07 -1.00482554276e-07 -2.18999604136e-05)
(-4.39774497824e-07 -3.25052797706e-08 -2.17385946323e-05)
(-3.20602979191e-08 -7.99141848739e-07 -3.04789656715e-05)
(-9.44793916788e-08 -7.78907987178e-07 -3.02032872834e-05)
(-1.51108450329e-07 -7.46626300881e-07 -2.96933671275e-05)
(-2.0353423237e-07 -7.09069790567e-07 -2.89853113333e-05)
(-2.51628621975e-07 -6.64672746663e-07 -2.81137724694e-05)
(-2.94288609343e-07 -6.11926115834e-07 -2.71185179584e-05)
(-3.30520108803e-07 -5.51385225059e-07 -2.6048703698e-05)
(-3.59188483861e-07 -4.84404505896e-07 -2.49672594601e-05)
(-3.79216998723e-07 -4.13128870971e-07 -2.39386430407e-05)
(-3.9034160367e-07 -3.39808373732e-07 -2.30117658728e-05)
(-3.92968889684e-07 -2.66873202313e-07 -2.22169615275e-05)
(-3.88152003576e-07 -1.97172101315e-07 -2.15727764921e-05)
(-3.79748767574e-07 -1.33244114646e-07 -2.10884047143e-05)
(-3.72490625276e-07 -7.62043032594e-08 -2.07663576088e-05)
(-3.69292884668e-07 -2.45216269362e-08 -2.05999732235e-05)
(-2.94015896053e-08 -6.74919124337e-07 -2.85465511238e-05)