/*--------------------------------*- C++ -*----------------------------------*\
| =========                 |                                                 |
| \\      /  F ield         | foam-extend: Open Source CFD                    |
|  \\    /   O peration     | Version:     4.1                                |
|   \\  /    A nd           | Web:         http://www.foam-extend.org         |
|    \\/     M anipulation  |                                                 |
\*---------------------------------------------------------------------------*/
FoamFile
{
    version     2.0;
    format      ascii;
    class       vectorField;
    location    "1";
    object      solidsCellD_iteration0;
}
// * * * * * * * * * * * * * * * * * * * * * * * * * * * * * * * * * * * * * //


1050
(
(0 0 -6.18118230217e-06)
(0 0 -6.14057361274e-06)
(0 0 -6.05931646482e-06)
(0 0 -5.94361465643e-06)
(0 0 -5.79783053451e-06)
(0 0 -5.62765677517e-06)
(0 0 -5.44086214964e-06)
(0 0 -5.24702824917e-06)
(0 0 -5.05670724408e-06)
(0 0 -4.88085130081e-06)
(0 0 -4.72918868748e-06)
(0 0 -4.6082599592e-06)
(0 0 -4.52083117659e-06)
(0 0 -4.46682903401e-06)
(0 0 -4.44385507772e-06)
(0 0 -6.12071564454e-06)
(0 0 -6.07823390443e-06)
(0 0 -5.99910295407e-06)
(0 0 -5.88693491018e-06)
(0 0 -5.74427119134e-06)
(0 0 -5.57656996276e-06)
(0 0 -5.39144232236e-06)
(0 0 -5.19861024462e-06)
(0 0 -5.00875115238e-06)
(0 0 -4.83311716912e-06)
(0 0 -4.68166196519e-06)
(0 0 -4.5608382864e-06)
(0 0 -4.47334795026e-06)
(0 0 -4.41971975087e-06)
(0 0 -4.39938957104e-06)
(0 0 -5.98017713516e-06)
(0 0 -5.93600556372e-06)
(0 0 -5.86054960514e-06)
(0 0 -5.75046398505e-06)
(0 0 -5.61245204867e-06)
(0 0 -5.44929271982e-06)
(0 0 -5.26878394182e-06)
(0 0 -5.08074868784e-06)
(0 0 -4.89591324518e-06)
(0 0 -4.72519401479e-06)
(0 0 -4.57796978732e-06)
(0 0 -4.46017696765e-06)
(0 0 -4.37452058986e-06)
(0 0 -4.32216725645e-06)
(0 0 -4.30236830896e-06)
(0 0 -5.73674506954e-06)
(0 0 -5.70051441513e-06)
(0 0 -5.62509360756e-06)
(0 0 -5.51981915922e-06)
(0 0 -5.38680657558e-06)
(0 0 -5.22906485819e-06)
(0 0 -5.05446170572e-06)
(0 0 -4.87343615409e-06)
(0 0 -4.69665280571e-06)
(0 0 -4.53415695305e-06)
(0 0 -4.39410558222e-06)
(0 0 -4.28151224326e-06)
(0 0 -4.19906670606e-06)
(0 0 -4.14855972162e-06)
(0 0 -4.12875440696e-06)
(0 0 -5.39647057928e-06)
(0 0 -5.36099623253e-06)
(0 0 -5.28532925944e-06)
(0 0 -5.18103067267e-06)
(0 0 -5.05058450933e-06)
(0 0 -4.89753803184e-06)
(0 0 -4.72974643437e-06)
(0 0 -4.55782245583e-06)
(0 0 -4.39174049905e-06)
(0 0 -4.24008712355e-06)
(0 0 -4.10932170851e-06)
(0 0 -4.00337783628e-06)
(0 0 -3.9251612808e-06)
(0 0 -3.87727768935e-06)
(0 0 -3.85786236449e-06)
(0 0 -4.90667996435e-06)
(0 0 -4.86844392185e-06)
(0 0 -4.7989036825e-06)
(0 0 -4.70052728246e-06)
(0 0 -4.57700849989e-06)
(0 0 -4.43320143591e-06)
(0 0 -4.27671960887e-06)
(0 0 -4.11774378671e-06)
(0 0 -3.96533381533e-06)
(0 0 -3.82663207411e-06)
(0 0 -3.7065452653e-06)
(0 0 -3.60828630307e-06)
(0 0 -3.53547022386e-06)
(0 0 -3.49165651556e-06)
(0 0 -3.47408295874e-06)
(0 0 -4.22071515685e-06)
(0 0 -4.20168197686e-06)
(0 0 -4.13946572658e-06)
(0 0 -4.051108485e-06)
(0 0 -3.94007218913e-06)
(0 0 -3.81112700827e-06)
(0 0 -3.67178840999e-06)
(0 0 -3.53105442727e-06)
(0 0 -3.39671791994e-06)
(0 0 -3.27448251266e-06)
(0 0 -3.1680157267e-06)
(0 0 -3.08033431007e-06)
(0 0 -3.01607379848e-06)
(0 0 -2.97930707958e-06)
(0 0 -2.96554302208e-06)
(0 0 -3.33177437037e-06)
(0 0 -3.29275522695e-06)
(0 0 -3.25315405833e-06)
(0 0 -3.17894898331e-06)
(0 0 -3.0896809552e-06)
(0 0 -2.98592863679e-06)
(0 0 -2.87426634034e-06)
(0 0 -2.76180382194e-06)
(0 0 -2.65450209013e-06)
(0 0 -2.55653473529e-06)
(0 0 -2.47066250879e-06)
(0 0 -2.4000299947e-06)
(0 0 -2.34984440618e-06)
(0 0 -2.32331771243e-06)
(0 0 -2.31352387026e-06)
(0 0 -2.1391549471e-06)
(0 0 -2.1450809686e-06)
(0 0 -2.10133506311e-06)
(0 0 -2.05804561728e-06)
(0 0 -1.99901679559e-06)
(0 0 -1.93161794868e-06)
(0 0 -1.85893271033e-06)
(0 0 -1.78563520922e-06)
(0 0 -1.71553238682e-06)
(0 0 -1.65123002736e-06)
(0 0 -1.59466692045e-06)
(0 0 -1.54868875735e-06)
(0 0 -1.51766071716e-06)
(0 0 -1.50260192616e-06)
(0 0 -1.49541211125e-06)
(0 0 -7.39563574367e-07)
(0 0 -7.21104746381e-07)
(0 0 -7.16028903541e-07)
(0 0 -6.99666967938e-07)
(0 0 -6.80701952615e-07)
(0 0 -6.58061143329e-07)
(0 0 -6.33504634316e-07)
(0 0 -6.08631735221e-07)
(0 0 -5.84793004495e-07)
(0 0 -5.62881266681e-07)
(0 0 -5.43664616149e-07)
(0 0 -5.28533521977e-07)
(0 0 -5.19493015103e-07)
(0 0 -5.1603882733e-07)
(0 0 -5.12785946827e-07)
(0 0 -6.22440149632e-06)
(0 0 -6.1851669621e-06)
(0 0 -6.1036937222e-06)
(0 0 -5.98724553338e-06)
(0 0 -5.84122090248e-06)
(0 0 -5.67079964105e-06)
(0 0 -5.48421616949e-06)
(0 0 -5.29106392073e-06)
(0 0 -5.10174091173e-06)
(0 0 -4.92726269705e-06)
(0 0 -4.77744908551e-06)
(0 0 -4.65857998478e-06)
(0 0 -4.57301236281e-06)
(0 0 -4.52071948071e-06)
(0 0 -4.50040353577e-06)
(0 0 -6.16164384336e-06)
(0 0 -6.12128513499e-06)
(0 0 -6.04006161794e-06)
(0 0 -5.9280005073e-06)
(0 0 -5.78506961619e-06)
(0 0 -5.61751514299e-06)
(0 0 -5.43343477995e-06)
(0 0 -5.2424508724e-06)
(0 0 -5.05491441936e-06)
(0 0 -4.88189666884e-06)
(0 0 -4.7332128973e-06)
(0 0 -4.6150065604e-06)
(0 0 -4.52968623375e-06)
(0 0 -4.47792523859e-06)
(0 0 -4.45937683231e-06)
(0 0 -6.02694129995e-06)
(0 0 -5.97893074158e-06)
(0 0 -5.9019514083e-06)
(0 0 -5.79105558621e-06)
(0 0 -5.65211383836e-06)
(0 0 -5.48877019505e-06)
(0 0 -5.30910089799e-06)
(0 0 -5.12291899336e-06)
(0 0 -4.94051842641e-06)
(0 0 -4.77250364192e-06)
(0 0 -4.62803744634e-06)
(0 0 -4.51275352063e-06)
(0 0 -4.42915481399e-06)
(0 0 -4.37853191796e-06)
(0 0 -4.35958353723e-06)
(0 0 -5.78053614004e-06)
(0 0 -5.74084097744e-06)
(0 0 -5.66530235787e-06)
(0 0 -5.55903422636e-06)
(0 0 -5.42563289891e-06)
(0 0 -5.26787884649e-06)
(0 0 -5.0940143862e-06)
(0 0 -4.91450212555e-06)
(0 0 -4.73964601785e-06)
(0 0 -4.57927063727e-06)
(0 0 -4.44134868942e-06)
(0 0 -4.33059869059e-06)
(0 0 -4.24962026392e-06)
(0 0 -4.20035694785e-06)
(0 0 -4.18038177053e-06)
(0 0 -5.43908828424e-06)
(0 0 -5.40585634404e-06)
(0 0 -5.3305506577e-06)
(0 0 -5.2247920346e-06)
(0 0 -5.09359409317e-06)
(0 0 -4.93966380872e-06)
(0 0 -4.77141328926e-06)
(0 0 -4.59958309109e-06)
(0 0 -4.43397934213e-06)
(0 0 -4.28309683323e-06)
(0 0 -4.15322308891e-06)
(0 0 -4.04802189094e-06)
(0 0 -3.9705100219e-06)
(0 0 -3.92352757518e-06)
(0 0 -3.90372388466e-06)
(0 0 -4.95539539612e-06)
(0 0 -4.91764899593e-06)
(0 0 -4.8469148099e-06)
(0 0 -4.74698746905e-06)
(0 0 -4.62215869041e-06)
(0 0 -4.47689873721e-06)
(0 0 -4.31926572337e-06)
(0 0 -4.15955063269e-06)
(0 0 -4.0067147178e-06)
(0 0 -3.86782829694e-06)
(0 0 -3.74763725359e-06)
(0 0 -3.64924628985e-06)
(0 0 -3.57674049862e-06)
(0 0 -3.53394156268e-06)
(0 0 -3.51625019326e-06)
(0 0 -4.26334595593e-06)
(0 0 -4.2478760106e-06)
(0 0 -4.18219959855e-06)
(0 0 -4.09406142774e-06)
(0 0 -3.9824086199e-06)
(0 0 -3.85278205075e-06)
(0 0 -3.7128701968e-06)
(0 0 -3.57166693626e-06)
(0 0 -3.43687243923e-06)
(0 0 -3.31412813266e-06)
(0 0 -3.20705458401e-06)
(0 0 -3.11886834465e-06)
(0 0 -3.05497682337e-06)
(0 0 -3.01930559559e-06)
(0 0 -3.00465152708e-06)
(0 0 -3.37530790032e-06)
(0 0 -3.32937798083e-06)
(0 0 -3.29147974241e-06)
(0 0 -3.21702873375e-06)
(0 0 -3.12766926032e-06)
(0 0 -3.02359215665e-06)
(0 0 -2.91156804455e-06)
(0 0 -2.79866250794e-06)
(0 0 -2.69075555759e-06)
(0 0 -2.59198911686e-06)
(0 0 -2.5052408868e-06)
(0 0 -2.4341058788e-06)
(0 0 -2.38445767665e-06)
(0 0 -2.35836823409e-06)
(0 0 -2.34528303808e-06)
(0 0 -2.17182737973e-06)
(0 0 -2.17819482603e-06)
(0 0 -2.13432799635e-06)
(0 0 -2.09030769134e-06)
(0 0 -2.03079747742e-06)
(0 0 -1.96268170318e-06)
(0 0 -1.88920822819e-06)
(0 0 -1.81500644763e-06)
(0 0 -1.74383084577e-06)
(0 0 -1.6783249298e-06)
(0 0 -1.62067325677e-06)
(0 0 -1.57416931987e-06)
(0 0 -1.54330711106e-06)
(0 0 -1.52719938772e-06)
(0 0 -1.51542516587e-06)
(0 0 -7.56474826426e-07)
(0 0 -7.39955460085e-07)
(0 0 -7.33351285169e-07)
(0 0 -7.16781856227e-07)
(0 0 -6.97185864726e-07)
(0 0 -6.73879036547e-07)
(0 0 -6.48549914017e-07)
(0 0 -6.2280801003e-07)
(0 0 -5.97993114556e-07)
(0 0 -5.75072659756e-07)
(0 0 -5.55012608685e-07)
(0 0 -5.39378366235e-07)
(0 0 -5.29903041014e-07)
(0 0 -5.24835382364e-07)
(0 0 -5.19734600963e-07)
(0 0 -6.3142339741e-06)
(0 0 -6.2711044313e-06)
(0 0 -6.18747530183e-06)
(0 0 -6.06745688561e-06)
(0 0 -5.91881232586e-06)
(0 0 -5.74762099967e-06)
(0 0 -5.56300886421e-06)
(0 0 -5.37415304284e-06)
(0 0 -5.1905739357e-06)
(0 0 -5.02262742371e-06)
(0 0 -4.87954518812e-06)
(0 0 -4.76697262299e-06)
(0 0 -4.68656445874e-06)
(0 0 -4.63753469906e-06)
(0 0 -4.61761934004e-06)
(0 0 -6.24555217564e-06)
(0 0 -6.20646319314e-06)
(0 0 -6.12158525732e-06)
(0 0 -6.00607264307e-06)
(0 0 -5.86062356472e-06)
(0 0 -5.69252804456e-06)
(0 0 -5.51073121057e-06)
(0 0 -5.32427072601e-06)
(0 0 -5.14266511175e-06)
(0 0 -4.97629369355e-06)
(0 0 -4.83438142368e-06)
(0 0 -4.72254120042e-06)
(0 0 -4.64248596395e-06)
(0 0 -4.59371599606e-06)
(0 0 -4.5736041083e-06)
(0 0 -6.11707241944e-06)
(0 0 -6.06684777068e-06)
(0 0 -5.98576823256e-06)
(0 0 -5.87161938005e-06)
(0 0 -5.72958703947e-06)
(0 0 -5.5649271926e-06)
(0 0 -5.38655062889e-06)
(0 0 -5.20387215831e-06)
(0 0 -5.02644433025e-06)
(0 0 -4.86419120614e-06)
(0 0 -4.72571322675e-06)
(0 0 -4.6161301593e-06)
(0 0 -4.53714122685e-06)
(0 0 -4.48855266221e-06)
(0 0 -4.46739166388e-06)
(0 0 -5.87263429021e-06)
(0 0 -5.83034813358e-06)
(0 0 -5.75193637812e-06)
(0 0 -5.64310897552e-06)
(0 0 -5.50708702837e-06)
(0 0 -5.34798207054e-06)
(0 0 -5.17484908928e-06)
(0 0 -4.99777767177e-06)
(0 0 -4.82642866244e-06)
(0 0 -4.67012507255e-06)
(0 0 -4.5365018798e-06)
(0 0 -4.42988574537e-06)
(0 0 -4.35200896396e-06)
(0 0 -4.30327905814e-06)
(0 0 -4.28123760851e-06)
(0 0 -5.52927640684e-06)
(0 0 -5.49537100904e-06)
(0 0 -5.41997650579e-06)
(0 0 -5.31322998369e-06)
(0 0 -5.18061469522e-06)
(0 0 -5.02573265011e-06)
(0 0 -4.85772521252e-06)
(0 0 -4.68702683933e-06)
(0 0 -4.52301828787e-06)
(0 0 -4.37401549343e-06)
(0 0 -4.24632097488e-06)
(0 0 -4.14342619455e-06)
(0 0 -4.06750880559e-06)
(0 0 -4.01998034862e-06)
(0 0 -3.99938232283e-06)
(0 0 -5.04612911423e-06)
(0 0 -5.00811252344e-06)
(0 0 -4.93816361136e-06)
(0 0 -4.83785052577e-06)
(0 0 -4.71227714274e-06)
(0 0 -4.566282445e-06)
(0 0 -4.40846521514e-06)
(0 0 -4.24886993158e-06)
(0 0 -4.09618021583e-06)
(0 0 -3.9575253784e-06)
(0 0 -3.83796226486e-06)
(0 0 -3.74063230259e-06)
(0 0 -3.668830807e-06)
(0 0 -3.62498191421e-06)
(0 0 -3.60765734878e-06)
(0 0 -4.34899411681e-06)
(0 0 -4.33565864708e-06)
(0 0 -4.26843076614e-06)
(0 0 -4.18067834866e-06)
(0 0 -4.06881978013e-06)
(0 0 -3.93889341565e-06)
(0 0 -3.79882018732e-06)
(0 0 -3.65737398592e-06)
(0 0 -3.5220561603e-06)
(0 0 -3.39872248016e-06)
(0 0 -3.29153431058e-06)
(0 0 -3.20388888552e-06)
(0 0 -3.14029938485e-06)
(0 0 -3.10297014418e-06)
(0 0 -3.08855622822e-06)
(0 0 -3.45876554157e-06)
(0 0 -3.41095081668e-06)
(0 0 -3.37190920458e-06)
(0 0 -3.29772587095e-06)
(0 0 -3.20797221041e-06)
(0 0 -3.10331946066e-06)
(0 0 -2.99059969911e-06)
(0 0 -2.87671510964e-06)
(0 0 -2.76743828922e-06)
(0 0 -2.66723109957e-06)
(0 0 -2.57963920614e-06)
(0 0 -2.5084389827e-06)
(0 0 -2.45831209791e-06)
(0 0 -2.42925976672e-06)
(0 0 -2.41634330176e-06)
(0 0 -2.24460397478e-06)
(0 0 -2.2488987102e-06)
(0 0 -2.20604104555e-06)
(0 0 -2.16078695504e-06)
(0 0 -2.10055530012e-06)
(0 0 -2.03126661745e-06)
(0 0 -1.95641946779e-06)
(0 0 -1.88051559103e-06)
(0 0 -1.80727231675e-06)
(0 0 -1.7396698179e-06)
(0 0 -1.6804969005e-06)
(0 0 -1.63305761735e-06)
(0 0 -1.60047894154e-06)
(0 0 -1.58035559872e-06)
(0 0 -1.57078846161e-06)
(0 0 -7.92618572412e-07)
(0 0 -7.78967750456e-07)
(0 0 -7.70853440057e-07)
(0 0 -7.54055370142e-07)
(0 0 -7.33714337406e-07)
(0 0 -7.0956544419e-07)
(0 0 -6.83219123744e-07)
(0 0 -6.56262964948e-07)
(0 0 -6.30039790548e-07)
(0 0 -6.05718707464e-07)
(0 0 -5.84569100168e-07)
(0 0 -5.68019125105e-07)
(0 0 -5.56929610775e-07)
(0 0 -5.49426497998e-07)
(0 0 -5.48135816717e-07)
(0 0 -6.45182528572e-06)
(0 0 -6.40258940925e-06)
(0 0 -6.31542476543e-06)
(0 0 -6.19048334986e-06)
(0 0 -6.03726539093e-06)
(0 0 -5.86431269801e-06)
(0 0 -5.68156886389e-06)
(0 0 -5.49738411911e-06)
(0 0 -5.32024503034e-06)
(0 0 -5.15960878048e-06)
(0 0 -5.02399522346e-06)
(0 0 -4.91851511415e-06)
(0 0 -4.84405614103e-06)
(0 0 -4.79847110577e-06)
(0 0 -4.77787894834e-06)
(0 0 -6.37668256485e-06)
(0 0 -6.33856158328e-06)
(0 0 -6.24978685011e-06)
(0 0 -6.12890354824e-06)
(0 0 -5.97887358777e-06)
(0 0 -5.80902148532e-06)
(0 0 -5.62890429349e-06)
(0 0 -5.44675792987e-06)
(0 0 -5.2712157797e-06)
(0 0 -5.11184450873e-06)
(0 0 -4.97725655945e-06)
(0 0 -4.87256947764e-06)
(0 0 -4.79848783669e-06)
(0 0 -4.75258543798e-06)
(0 0 -4.7309308556e-06)
(0 0 -6.25246656531e-06)
(0 0 -6.20195239167e-06)
(0 0 -6.11717330856e-06)
(0 0 -5.9991099322e-06)
(0 0 -5.85290211907e-06)
(0 0 -5.68636155259e-06)
(0 0 -5.50903866515e-06)
(0 0 -5.32977020074e-06)
(0 0 -5.15734666299e-06)
(0 0 -5.0009721242e-06)
(0 0 -4.86873410094e-06)
(0 0 -4.7652434725e-06)
(0 0 -4.69099924969e-06)
(0 0 -4.64389377794e-06)
(0 0 -4.62142124382e-06)
(0 0 -6.01190687182e-06)
(0 0 -5.96858048524e-06)
(0 0 -5.88895107125e-06)
(0 0 -5.77772033149e-06)
(0 0 -5.63865812494e-06)
(0 0 -5.47809351448e-06)
(0 0 -5.3057190435e-06)
(0 0 -5.13107290175e-06)
(0 0 -4.96313023245e-06)
(0 0 -4.81072563505e-06)
(0 0 -4.68130017005e-06)
(0 0 -4.57879918985e-06)
(0 0 -4.50363962025e-06)
(0 0 -4.45476180409e-06)
(0 0 -4.4318113205e-06)
(0 0 -5.66523999316e-06)
(0 0 -5.63215313443e-06)
(0 0 -5.55822208893e-06)
(0 0 -5.45162204679e-06)
(0 0 -5.31813600275e-06)
(0 0 -5.16304083084e-06)
(0 0 -4.99602460568e-06)
(0 0 -4.82698336777e-06)
(0 0 -4.66477256876e-06)
(0 0 -4.51760189237e-06)
(0 0 -4.39205756198e-06)
(0 0 -4.29149431508e-06)
(0 0 -4.21675422237e-06)
(0 0 -4.1682828472e-06)
(0 0 -4.14771515121e-06)
(0 0 -5.18072552507e-06)
(0 0 -5.14296286845e-06)
(0 0 -5.07553940799e-06)
(0 0 -4.97635046271e-06)
(0 0 -4.85116380248e-06)
(0 0 -4.70566081723e-06)
(0 0 -4.54884179762e-06)
(0 0 -4.39026044462e-06)
(0 0 -4.23821053423e-06)
(0 0 -4.10002513238e-06)
(0 0 -3.98140786612e-06)
(0 0 -3.88547529527e-06)
(0 0 -3.81408067237e-06)
(0 0 -3.76901502423e-06)
(0 0 -3.75262869798e-06)
(0 0 -4.47880693674e-06)
(0 0 -4.46644148837e-06)
(0 0 -4.3997375878e-06)
(0 0 -4.31299059514e-06)
(0 0 -4.20175764925e-06)
(0 0 -4.07245031898e-06)
(0 0 -3.93314885439e-06)
(0 0 -3.79222082097e-06)
(0 0 -3.65688705896e-06)
(0 0 -3.53341273131e-06)
(0 0 -3.42678419602e-06)
(0 0 -3.34024027826e-06)
(0 0 -3.27650308572e-06)
(0 0 -3.23732119621e-06)
(0 0 -3.22427744339e-06)
(0 0 -3.58385961409e-06)
(0 0 -3.53733152615e-06)
(0 0 -3.4965851377e-06)
(0 0 -3.42321186767e-06)
(0 0 -3.33340603816e-06)
(0 0 -3.22866056401e-06)
(0 0 -3.11576247269e-06)
(0 0 -3.0013327372e-06)
(0 0 -2.89101024728e-06)
(0 0 -2.78979555145e-06)
(0 0 -2.7020583313e-06)
(0 0 -2.63112851568e-06)
(0 0 -2.57958795381e-06)
(0 0 -2.5476924265e-06)
(0 0 -2.53769233194e-06)
(0 0 -2.3570144709e-06)
(0 0 -2.35845196805e-06)
(0 0 -2.31730086987e-06)
(0 0 -2.27109575338e-06)
(0 0 -2.21041649811e-06)
(0 0 -2.14028221994e-06)
(0 0 -2.0643877894e-06)
(0 0 -1.98704717862e-06)
(0 0 -1.91195385524e-06)
(0 0 -1.84260366423e-06)
(0 0 -1.78239947341e-06)
(0 0 -1.73398072641e-06)
(0 0 -1.69869676681e-06)
(0 0 -1.67605717094e-06)
(0 0 -1.67181792819e-06)
(0 0 -8.50272738124e-07)
(0 0 -8.38890553399e-07)
(0 0 -8.2955195351e-07)
(0 0 -8.12508867308e-07)
(0 0 -7.91443824321e-07)
(0 0 -7.66458269758e-07)
(0 0 -7.39098577372e-07)
(0 0 -7.10913962331e-07)
(0 0 -6.83276526039e-07)
(0 0 -6.57640954512e-07)
(0 0 -6.35532922314e-07)
(0 0 -6.1789544129e-07)
(0 0 -6.0487794333e-07)
(0 0 -5.96986517983e-07)
(0 0 -5.99343778104e-07)
(0 0 -6.63836795977e-06)
(0 0 -6.58377381651e-06)
(0 0 -6.49285002448e-06)
(0 0 -6.36215589766e-06)
(0 0 -6.20314326532e-06)
(0 0 -6.02721570224e-06)
(0 0 -5.84461530743e-06)
(0 0 -5.66298393951e-06)
(0 0 -5.49011331864e-06)
(0 0 -5.33477114779e-06)
(0 0 -5.20497787231e-06)
(0 0 -5.10549636759e-06)
(0 0 -5.03644873215e-06)
(0 0 -4.99431249498e-06)
(0 0 -4.97445135323e-06)
(0 0 -6.55952814269e-06)
(0 0 -6.52134775673e-06)
(0 0 -6.42985128586e-06)
(0 0 -6.30269251694e-06)
(0 0 -6.14693763209e-06)
(0 0 -5.97397488235e-06)
(0 0 -5.79361655332e-06)
(0 0 -5.61352252586e-06)
(0 0 -5.44170486908e-06)
(0 0 -5.2870881967e-06)
(0 0 -5.1578607399e-06)
(0 0 -5.05875542673e-06)
(0 0 -4.98949513158e-06)
(0 0 -4.94626130083e-06)
(0 0 -4.92527091089e-06)
(0 0 -6.43362811314e-06)
(0 0 -6.38570661297e-06)
(0 0 -6.29849601321e-06)
(0 0 -6.1764715432e-06)
(0 0 -6.0258678543e-06)
(0 0 -5.85677214099e-06)
(0 0 -5.67906535854e-06)
(0 0 -5.5011136399e-06)
(0 0 -5.33117981885e-06)
(0 0 -5.17802780475e-06)
(0 0 -5.04955221249e-06)
(0 0 -4.95006575584e-06)
(0 0 -4.87914354663e-06)
(0 0 -4.83393182445e-06)
(0 0 -4.81104108935e-06)
(0 0 -6.197624795e-06)
(0 0 -6.15414958776e-06)
(0 0 -6.07424016774e-06)
(0 0 -5.96108819788e-06)
(0 0 -5.81915586158e-06)
(0 0 -5.65686474353e-06)
(0 0 -5.48424125549e-06)
(0 0 -5.31030736167e-06)
(0 0 -5.14354309549e-06)
(0 0 -4.99258833727e-06)
(0 0 -4.86502587647e-06)
(0 0 -4.76464710054e-06)
(0 0 -4.69102244646e-06)
(0 0 -4.64308946632e-06)
(0 0 -4.61803472185e-06)
(0 0 -5.84623837835e-06)
(0 0 -5.81302593364e-06)
(0 0 -5.74095918363e-06)
(0 0 -5.63518439043e-06)
(0 0 -5.50131306479e-06)
(0 0 -5.3462742773e-06)
(0 0 -5.18000779455e-06)
(0 0 -5.01181813697e-06)
(0 0 -4.85011811195e-06)
(0 0 -4.70323181661e-06)
(0 0 -4.57830046343e-06)
(0 0 -4.47871938415e-06)
(0 0 -4.40454309916e-06)
(0 0 -4.35664007905e-06)
(0 0 -4.33246233468e-06)
(0 0 -5.35771234504e-06)
(0 0 -5.3186002432e-06)
(0 0 -5.25377617699e-06)
(0 0 -5.15642796795e-06)
(0 0 -5.03229094599e-06)
(0 0 -4.88791716032e-06)
(0 0 -4.73247204252e-06)
(0 0 -4.57490953187e-06)
(0 0 -4.42314101448e-06)
(0 0 -4.28485837783e-06)
(0 0 -4.16656613612e-06)
(0 0 -4.07136440309e-06)
(0 0 -4.0001603957e-06)
(0 0 -3.95541973167e-06)
(0 0 -3.93415883021e-06)
(0 0 -4.65166557361e-06)
(0 0 -4.63751258033e-06)
(0 0 -4.57225934495e-06)
(0 0 -4.48662681373e-06)
(0 0 -4.37639766292e-06)
(0 0 -4.24815696011e-06)
(0 0 -4.10999972347e-06)
(0 0 -3.96979078829e-06)
(0 0 -3.83447161619e-06)
(0 0 -3.7108406912e-06)
(0 0 -3.6046977852e-06)
(0 0 -3.51884452136e-06)
(0 0 -3.45467067241e-06)
(0 0 -3.41520607512e-06)
(0 0 -3.39721976991e-06)
(0 0 -3.75052108299e-06)
(0 0 -3.7059162831e-06)
(0 0 -3.663262902e-06)
(0 0 -3.59082046378e-06)
(0 0 -3.5011643241e-06)
(0 0 -3.39663379583e-06)
(0 0 -3.2838689826e-06)
(0 0 -3.16914478093e-06)
(0 0 -3.05799131047e-06)
(0 0 -2.95605233178e-06)
(0 0 -2.86833872865e-06)
(0 0 -2.79721487663e-06)
(0 0 -2.74383455453e-06)
(0 0 -2.71131058052e-06)
(0 0 -2.69844418624e-06)
(0 0 -2.50923901424e-06)
(0 0 -2.50626325535e-06)
(0 0 -2.4667773745e-06)
(0 0 -2.41979717097e-06)
(0 0 -2.3587736607e-06)
(0 0 -2.28797939019e-06)
(0 0 -2.211216265e-06)
(0 0 -2.13258878966e-06)
(0 0 -2.05581168754e-06)
(0 0 -1.98496597539e-06)
(0 0 -1.92379925524e-06)
(0 0 -1.87382669449e-06)
(0 0 -1.83576630491e-06)
(0 0 -1.81367065255e-06)
(0 0 -1.8072918766e-06)
(0 0 -9.3523123339e-07)
(0 0 -9.24036972649e-07)
(0 0 -9.13216431746e-07)
(0 0 -8.95490706814e-07)
(0 0 -8.7327147249e-07)
(0 0 -8.46945078876e-07)
(0 0 -8.18009523654e-07)
(0 0 -7.87985601989e-07)
(0 0 -7.58329710607e-07)
(0 0 -7.30829170124e-07)
(0 0 -7.0711278352e-07)
(0 0 -6.87521171953e-07)
(0 0 -6.72561445876e-07)
(0 0 -6.65871673749e-07)
(0 0 -6.63035230848e-07)
(0 0 -6.87157453892e-06)
(0 0 -6.81433896347e-06)
(0 0 -6.71897400712e-06)
(0 0 -6.58293502877e-06)
(0 0 -6.41851628944e-06)
(0 0 -6.23911821093e-06)
(0 0 -6.05500916818e-06)
(0 0 -5.87364764175e-06)
(0 0 -5.70269542085e-06)
(0 0 -5.55055353296e-06)
(0 0 -5.42478833871e-06)
(0 0 -5.32965360223e-06)
(0 0 -5.26454561799e-06)
(0 0 -5.22525901852e-06)
(0 0 -5.2074635608e-06)
(0 0 -6.7933464285e-06)
(0 0 -6.7532888232e-06)
(0 0 -6.66040572811e-06)
(0 0 -6.52860149222e-06)
(0 0 -6.36829122348e-06)
(0 0 -6.19231236926e-06)
(0 0 -6.01058953321e-06)
(0 0 -5.83070210001e-06)
(0 0 -5.66045579785e-06)
(0 0 -5.5083659104e-06)
(0 0 -5.38221796797e-06)
(0 0 -5.28628800095e-06)
(0 0 -5.21972425267e-06)
(0 0 -5.17860586211e-06)
(0 0 -5.15902012536e-06)
(0 0 -6.66311873245e-06)
(0 0 -6.62016203916e-06)
(0 0 -6.53313395032e-06)
(0 0 -6.40883251808e-06)
(0 0 -6.25537168707e-06)
(0 0 -6.08421079346e-06)
(0 0 -5.9053706108e-06)
(0 0 -5.72703006595e-06)
(0 0 -5.55723277899e-06)
(0 0 -5.40457630616e-06)
(0 0 -5.27692278674e-06)
(0 0 -5.17847845633e-06)
(0 0 -5.10872557782e-06)
(0 0 -5.06507991047e-06)
(0 0 -5.04458756469e-06)
(0 0 -6.43094049989e-06)
(0 0 -6.39051550463e-06)
(0 0 -6.31171542859e-06)
(0 0 -6.19792791567e-06)
(0 0 -6.05448058272e-06)
(0 0 -5.89108728481e-06)
(0 0 -5.71782975112e-06)
(0 0 -5.54335907965e-06)
(0 0 -5.37588916925e-06)
(0 0 -5.22410804404e-06)
(0 0 -5.09589491856e-06)
(0 0 -4.99518299293e-06)
(0 0 -4.92172422418e-06)
(0 0 -4.87449358846e-06)
(0 0 -4.85299240295e-06)
(0 0 -6.07573849796e-06)
(0 0 -6.04341279387e-06)
(0 0 -5.9732968169e-06)
(0 0 -5.86891285356e-06)
(0 0 -5.73555345043e-06)
(0 0 -5.58119980236e-06)
(0 0 -5.41572988921e-06)
(0 0 -5.24790919976e-06)
(0 0 -5.08583838479e-06)
(0 0 -4.93807854317e-06)
(0 0 -4.81233966376e-06)
(0 0 -4.71229628808e-06)
(0 0 -4.63819875682e-06)
(0 0 -4.5903074123e-06)
(0 0 -4.56841487763e-06)
(0 0 -5.58184353787e-06)
(0 0 -5.54197095567e-06)
(0 0 -5.47900726811e-06)
(0 0 -5.38364641954e-06)
(0 0 -5.2610786641e-06)
(0 0 -5.11839664265e-06)
(0 0 -4.96467386753e-06)
(0 0 -4.80827488365e-06)
(0 0 -4.65680219336e-06)
(0 0 -4.51832124405e-06)
(0 0 -4.39997135491e-06)
(0 0 -4.30494321789e-06)
(0 0 -4.23409949878e-06)
(0 0 -4.18881745341e-06)
(0 0 -4.16733120327e-06)
(0 0 -4.87296301082e-06)
(0 0 -4.85626202149e-06)
(0 0 -4.79296212571e-06)
(0 0 -4.70830345514e-06)
(0 0 -4.59933138103e-06)
(0 0 -4.47254691318e-06)
(0 0 -4.33590827052e-06)
(0 0 -4.19679087781e-06)
(0 0 -4.06192427189e-06)
(0 0 -3.93859219537e-06)
(0 0 -3.83306236663e-06)
(0 0 -3.74767804402e-06)
(0 0 -3.68358619579e-06)
(0 0 -3.64316305678e-06)
(0 0 -3.62408223535e-06)
(0 0 -3.96431513243e-06)
(0 0 -3.92296698413e-06)
(0 0 -3.8787503554e-06)
(0 0 -3.80732675461e-06)
(0 0 -3.71816865687e-06)
(0 0 -3.61434613031e-06)
(0 0 -3.50227720695e-06)
(0 0 -3.38790575006e-06)
(0 0 -3.27671947251e-06)
(0 0 -3.17491732909e-06)
(0 0 -3.08766780051e-06)
(0 0 -3.01631525165e-06)
(0 0 -2.96218102495e-06)
(0 0 -2.9293155854e-06)
(0 0 -2.91612309812e-06)
(0 0 -2.70868298227e-06)
(0 0 -2.70109877456e-06)
(0 0 -2.66328285566e-06)
(0 0 -2.61581991725e-06)
(0 0 -2.55472936883e-06)
(0 0 -2.48370439515e-06)
(0 0 -2.40658110854e-06)
(0 0 -2.327285694e-06)
(0 0 -2.24961859091e-06)
(0 0 -2.17814639983e-06)
(0 0 -2.11648846859e-06)
(0 0 -2.0651585831e-06)
(0 0 -2.02618452438e-06)
(0 0 -2.00505068591e-06)
(0 0 -1.99604809799e-06)
(0 0 -1.06536600573e-06)
(0 0 -1.05371707358e-06)
(0 0 -1.04133357417e-06)
(0 0 -1.02260404108e-06)
(0 0 -9.98956139268e-07)
(0 0 -9.70990150405e-07)
(0 0 -9.40172289988e-07)
(0 0 -9.08022638243e-07)
(0 0 -8.76138020685e-07)
(0 0 -8.46594522826e-07)
(0 0 -8.20900623132e-07)
(0 0 -7.99097697601e-07)
(0 0 -7.83287821708e-07)
(0 0 -7.76306885201e-07)
(0 0 -7.69059735749e-07)
(0 0 -7.15383412558e-06)
(0 0 -7.09624221706e-06)
(0 0 -6.99651618103e-06)
(0 0 -6.85681266213e-06)
(0 0 -6.68912300507e-06)
(0 0 -6.50738007373e-06)
(0 0 -6.32176064723e-06)
(0 0 -6.13987255281e-06)
(0 0 -5.96949329413e-06)
(0 0 -5.81886293089e-06)
(0 0 -5.69519459807e-06)
(0 0 -5.60223090454e-06)
(0 0 -5.53892470622e-06)
(0 0 -5.5008975253e-06)
(0 0 -5.48228465327e-06)
(0 0 -7.07882540465e-06)
(0 0 -7.0335596123e-06)
(0 0 -6.93921022851e-06)
(0 0 -6.80535362229e-06)
(0 0 -6.6431193025e-06)
(0 0 -6.46548515529e-06)
(0 0 -6.28249756651e-06)
(0 0 -6.10204323439e-06)
(0 0 -5.9320364358e-06)
(0 0 -5.78087873574e-06)
(0 0 -5.65605126581e-06)
(0 0 -5.5613692984e-06)
(0 0 -5.49578683856e-06)
(0 0 -5.45510691875e-06)
(0 0 -5.43244018072e-06)
(0 0 -6.94162657414e-06)
(0 0 -6.90067218421e-06)
(0 0 -6.81427662384e-06)
(0 0 -6.68931008164e-06)
(0 0 -6.53486804479e-06)
(0 0 -6.36271831442e-06)
(0 0 -6.18299160473e-06)
(0 0 -6.00400939876e-06)
(0 0 -5.83388535298e-06)
(0 0 -5.68123948262e-06)
(0 0 -5.55384157992e-06)
(0 0 -5.45574075263e-06)
(0 0 -5.3866610017e-06)
(0 0 -5.34300269671e-06)
(0 0 -5.31999456881e-06)
(0 0 -6.71125593358e-06)
(0 0 -6.67324083945e-06)
(0 0 -6.59514827817e-06)
(0 0 -6.48096400003e-06)
(0 0 -6.3366992118e-06)
(0 0 -6.1724827148e-06)
(0 0 -5.9984234174e-06)
(0 0 -5.82314475544e-06)
(0 0 -5.6548974305e-06)
(0 0 -5.50251917351e-06)
(0 0 -5.37396507341e-06)
(0 0 -5.27319436024e-06)
(0 0 -5.20040051434e-06)
(0 0 -5.15371787836e-06)
(0 0 -5.13166641378e-06)
(0 0 -6.35617965778e-06)
(0 0 -6.32394779596e-06)
(0 0 -6.25415335917e-06)
(0 0 -6.14987114798e-06)
(0 0 -6.01627937812e-06)
(0 0 -5.86177967491e-06)
(0 0 -5.69615240799e-06)
(0 0 -5.52798802688e-06)
(0 0 -5.36539907564e-06)
(0 0 -5.21720551938e-06)
(0 0 -5.09130320838e-06)
(0 0 -4.99141254016e-06)
(0 0 -4.91795770109e-06)
(0 0 -4.86991848736e-06)
(0 0 -4.84850278641e-06)
(0 0 -5.86080163698e-06)
(0 0 -5.8208152059e-06)
(0 0 -5.75726299171e-06)
(0 0 -5.6620024641e-06)
(0 0 -5.53945048743e-06)
(0 0 -5.39691781461e-06)
(0 0 -5.24336153042e-06)
(0 0 -5.08690503423e-06)
(0 0 -4.93517295231e-06)
(0 0 -4.79657168206e-06)
(0 0 -4.6784129224e-06)
(0 0 -4.58380172406e-06)
(0 0 -4.51351185903e-06)
(0 0 -4.46654341411e-06)
(0 0 -4.44584880014e-06)
(0 0 -5.15418057748e-06)
(0 0 -5.13467000064e-06)
(0 0 -5.07247916167e-06)
(0 0 -4.98728760136e-06)
(0 0 -4.87813228525e-06)
(0 0 -4.75129537452e-06)
(0 0 -4.61460286608e-06)
(0 0 -4.47522478265e-06)
(0 0 -4.33996701791e-06)
(0 0 -4.21649982028e-06)
(0 0 -4.11106780573e-06)
(0 0 -4.02566079329e-06)
(0 0 -3.96155331862e-06)
(0 0 -3.91818655618e-06)
(0 0 -3.90186313954e-06)
(0 0 -4.2394303126e-06)
(0 0 -4.20215602535e-06)
(0 0 -4.15612745443e-06)
(0 0 -4.08490190541e-06)
(0 0 -3.99543537278e-06)
(0 0 -3.8914005191e-06)
(0 0 -3.77901269405e-06)
(0 0 -3.66406817734e-06)
(0 0 -3.55220626906e-06)
(0 0 -3.45000374345e-06)
(0 0 -3.36230250941e-06)
(0 0 -3.28992628555e-06)
(0 0 -3.23534452417e-06)
(0 0 -3.19974527201e-06)
(0 0 -3.19064721684e-06)
(0 0 -2.97531007788e-06)
(0 0 -2.96374025134e-06)
(0 0 -2.92713546792e-06)
(0 0 -2.87902450705e-06)
(0 0 -2.81751612713e-06)
(0 0 -2.7458744847e-06)
(0 0 -2.66793015067e-06)
(0 0 -2.58753548086e-06)
(0 0 -2.50868102834e-06)
(0 0 -2.43621324832e-06)
(0 0 -2.37324155999e-06)
(0 0 -2.32009185433e-06)
(0 0 -2.28112733219e-06)
(0 0 -2.25707555025e-06)
(0 0 -2.24952998989e-06)
(0 0 -1.28065621612e-06)
(0 0 -1.26988506763e-06)
(0 0 -1.25604313924e-06)
(0 0 -1.23620578202e-06)
(0 0 -1.21106272838e-06)
(0 0 -1.18133583304e-06)
(0 0 -1.14845105808e-06)
(0 0 -1.11394567963e-06)
(0 0 -1.07958337833e-06)
(0 0 -1.04758118489e-06)
(0 0 -1.0191551832e-06)
(0 0 -9.94764473887e-07)
(0 0 -9.78235590469e-07)
(0 0 -9.65863562243e-07)
(0 0 -9.63244073923e-07)
)


// ************************************************************************* //
