/*--------------------------------*- C++ -*----------------------------------*\
| =========                 |                                                 |
| \\      /  F ield         | foam-extend: Open Source CFD                    |
|  \\    /   O peration     | Version:     4.1                                |
|   \\  /    A nd           | Web:         http://www.foam-extend.org         |
|    \\/     M anipulation  |                                                 |
\*---------------------------------------------------------------------------*/
FoamFile
{
    version     2.0;
    format      ascii;
    class       vectorField;
    location    "1";
    object      solidsCellD_iteration12;
}
// * * * * * * * * * * * * * * * * * * * * * * * * * * * * * * * * * * * * * //


1050
(
(1.97683980525e-07 1.2749800195e-06 -4.25755333343e-05)
(5.46862822275e-07 1.2348363846e-06 -4.22110197812e-05)
(8.89978650086e-07 1.16512656085e-06 -4.15250876498e-05)
(1.20957601269e-06 1.06764674578e-06 -4.05680794916e-05)
(1.50512372266e-06 9.48084713937e-07 -3.93902412845e-05)
(1.76960336389e-06 8.13654261953e-07 -3.80388237043e-05)
(1.99383514211e-06 6.73808042698e-07 -3.65718663794e-05)
(2.1713203662e-06 5.40116712354e-07 -3.50674527039e-05)
(2.30391903987e-06 4.22323962657e-07 -3.36124834539e-05)
(2.40048815644e-06 3.25021904808e-07 -3.22826608902e-05)
(2.4717683951e-06 2.4788927661e-07 -3.1132729738e-05)
(2.52642426093e-06 1.86450236625e-07 -3.01984940025e-05)
(2.56899670224e-06 1.33852673669e-07 -2.95001801434e-05)
(2.60067718608e-06 8.22873331958e-08 -2.90443704692e-05)
(2.61561179557e-06 2.75137755708e-08 -2.88215283894e-05)
(2.07631968491e-07 1.49845122215e-06 -4.16438289517e-05)
(5.74476441867e-07 1.44987926038e-06 -4.12994885174e-05)
(9.3728473491e-07 1.36752859062e-06 -4.05993138818e-05)
(1.27122751917e-06 1.25297875348e-06 -3.96359029179e-05)
(1.57744793122e-06 1.11460855697e-06 -3.84542069639e-05)
(1.84862045191e-06 9.62365937713e-07 -3.71011447682e-05)
(2.07647408736e-06 8.07750236962e-07 -3.5636333345e-05)
(2.25648916226e-06 6.63437951421e-07 -3.41422281534e-05)
(2.39307228434e-06 5.38273651392e-07 -3.27069574369e-05)
(2.49694226016e-06 4.3452985584e-07 -3.1402972853e-05)
(2.57942776982e-06 3.49095794566e-07 -3.02796150341e-05)
(2.64835025304e-06 2.7495572651e-07 -2.93681781698e-05)
(2.70586203078e-06 2.03653723876e-07 -2.86861543981e-05)
(2.75045679617e-06 1.27473618171e-07 -2.82392160778e-05)
(2.77297007223e-06 4.45686463147e-08 -2.80205407584e-05)
(2.30413021149e-07 1.87403425252e-06 -4.03172873629e-05)
(6.28858144641e-07 1.82749226571e-06 -3.99228631654e-05)
(1.0221098002e-06 1.73033933638e-06 -3.92169788677e-05)
(1.38310096429e-06 1.59432216158e-06 -3.82480387462e-05)
(1.71081148378e-06 1.43057822479e-06 -3.70646797291e-05)
(1.99795131812e-06 1.25151784334e-06 -3.57140791422e-05)
(2.23709500925e-06 1.07066952374e-06 -3.42606581356e-05)
(2.42629234023e-06 9.01716505147e-07 -3.27894664959e-05)
(2.57262341436e-06 7.52718664247e-07 -3.13861930454e-05)
(2.68808588522e-06 6.2403717224e-07 -3.0117608712e-05)
(2.78361574071e-06 5.10754883372e-07 -2.90269296988e-05)
(2.86564554124e-06 4.04955039592e-07 -2.81411896178e-05)
(2.93442667914e-06 2.98555066917e-07 -2.74752367278e-05)
(2.98815080188e-06 1.84854621168e-07 -2.70339563931e-05)
(3.01476907108e-06 6.46202924661e-08 -2.68117267805e-05)
(2.56719473015e-07 2.4345797934e-06 -3.8340862268e-05)
(6.95796605117e-07 2.37739421092e-06 -3.79686229439e-05)
(1.13419091456e-06 2.25918558522e-06 -3.7267286068e-05)
(1.53228484142e-06 2.09204613104e-06 -3.63137445198e-05)
(1.890939385e-06 1.8903282035e-06 -3.51497274335e-05)
(2.20191173527e-06 1.66968678817e-06 -3.38236673492e-05)
(2.45930026372e-06 1.44639721654e-06 -3.24035456562e-05)
(2.66385413091e-06 1.23545372374e-06 -3.09747869502e-05)
(2.8248466683e-06 1.04455796668e-06 -2.96189863802e-05)
(2.95487159692e-06 8.72992535217e-07 -2.83967752514e-05)
(3.06411960674e-06 7.15161471758e-07 -2.73455865189e-05)
(3.15791994163e-06 5.6345439516e-07 -2.64888784007e-05)
(3.23522682567e-06 4.10806727051e-07 -2.58399715213e-05)
(3.29463551479e-06 2.51251498906e-07 -2.54032828441e-05)
(3.32459945716e-06 8.73384918765e-08 -2.5174051179e-05)
(2.93971696725e-07 3.10849789993e-06 -3.56461511108e-05)
(7.86759488407e-07 3.04095635911e-06 -3.52624172714e-05)
(1.28037322052e-06 2.89795484942e-06 -3.45704533561e-05)
(1.72461955563e-06 2.69369759184e-06 -3.36454441224e-05)
(2.1208643342e-06 2.44600989152e-06 -3.2522462851e-05)
(2.46044190394e-06 2.17384999079e-06 -3.12488946446e-05)
(2.73937261092e-06 1.89634623919e-06 -2.98933582143e-05)
(2.96102825957e-06 1.6298903806e-06 -2.85380168381e-05)
(3.13635531679e-06 1.38257415341e-06 -2.72573426357e-05)
(3.27809184393e-06 1.15396037439e-06 -2.61043879288e-05)
(3.39576116961e-06 9.39156487748e-07 -2.51107890569e-05)
(3.49440490922e-06 7.31998334529e-07 -2.42967981125e-05)
(3.57318361872e-06 5.26938753691e-07 -2.36761212308e-05)
(3.63211003027e-06 3.18697400913e-07 -2.32539712226e-05)
(3.66105418392e-06 1.10282763898e-07 -2.30251232386e-05)
(3.36320454222e-07 3.84252079567e-06 -3.194486984e-05)
(8.89040542887e-07 3.76242077706e-06 -3.15813774147e-05)
(1.44383371891e-06 3.58539413043e-06 -3.0921338804e-05)
(1.93721689008e-06 3.33732405785e-06 -3.0058802473e-05)
(2.37219898302e-06 3.03601304424e-06 -2.90187062472e-05)
(2.73979373864e-06 2.70465211178e-06 -2.78447234836e-05)
(3.03837795583e-06 2.3646681702e-06 -2.6601900499e-05)
(3.27369562726e-06 2.0339614025e-06 -2.53648906969e-05)
(3.45796318745e-06 1.72175046029e-06 -2.41981976861e-05)
(3.60398324664e-06 1.42915351381e-06 -2.31465838662e-05)
(3.72115631641e-06 1.15297894048e-06 -2.22369512546e-05)
(3.81520994485e-06 8.88751126407e-07 -2.14864550544e-05)
(3.8868329672e-06 6.32337971961e-07 -2.09082825801e-05)
(3.9384102367e-06 3.78637198311e-07 -2.05092852717e-05)
(3.96228717723e-06 1.30537496874e-07 -2.02846119663e-05)
(3.79740093981e-07 4.50212627823e-06 -2.70648143479e-05)
(9.84320197297e-07 4.40447992525e-06 -2.67061494096e-05)
(1.59135111813e-06 4.19539557017e-06 -2.61256784782e-05)
(2.12656011885e-06 3.90251483724e-06 -2.53669664327e-05)
(2.59064552806e-06 3.54932556895e-06 -2.44606854165e-05)
(2.97640985048e-06 3.16080028731e-06 -2.34414816074e-05)
(3.28437604924e-06 2.76087168376e-06 -2.23674273333e-05)
(3.52255302413e-06 2.36877346158e-06 -2.13019962262e-05)
(3.70413858369e-06 1.99532886602e-06 -2.02972592995e-05)
(3.84218400484e-06 1.64409395877e-06 -1.93888212685e-05)
(3.94681828572e-06 1.31423018528e-06 -1.86001785573e-05)
(4.02549326054e-06 1.00264244763e-06 -1.79469027947e-05)
(4.08116246159e-06 7.05981948904e-07 -1.74401334014e-05)
(4.11888265569e-06 4.18825827329e-07 -1.70862539664e-05)
(4.133895527e-06 1.4396199118e-07 -1.68799212364e-05)
(4.04590740896e-07 4.88015088961e-06 -2.07948612264e-05)
(1.03165784373e-06 4.76252653088e-06 -2.05154109116e-05)
(1.66189215982e-06 4.5258511524e-06 -2.00228523135e-05)
(2.20767383995e-06 4.20105606301e-06 -1.94222970762e-05)
(2.67330615279e-06 3.81164702213e-06 -1.87056641375e-05)
(3.05182445606e-06 3.38552211321e-06 -1.79069194411e-05)
(3.34660976509e-06 2.94718738197e-06 -1.70699941552e-05)
(3.56740775274e-06 2.51658188289e-06 -1.62429320807e-05)
(3.72802148999e-06 2.10579584225e-06 -1.54627239819e-05)
(3.84181878656e-06 1.72067629012e-06 -1.47542792815e-05)
(3.92029785094e-06 1.3626142213e-06 -1.41370142549e-05)
(3.97315835421e-06 1.02935243029e-06 -1.36252565698e-05)
(4.0055410788e-06 7.17697485291e-07 -1.32273412249e-05)
(4.02406419871e-06 4.21800192293e-07 -1.29467622961e-05)
(4.02736280173e-06 1.44631848031e-07 -1.27760779077e-05)
(3.778988078e-07 4.49402560016e-06 -1.31864188691e-05)
(9.39297595931e-07 4.37384542345e-06 -1.29678062415e-05)
(1.50224132548e-06 4.14039673948e-06 -1.26638177942e-05)
(1.98509124956e-06 3.82867158831e-06 -1.22713073468e-05)
(2.3867769033e-06 3.45944264865e-06 -1.18136374917e-05)
(2.70470028266e-06 3.05831833024e-06 -1.13029549525e-05)
(2.9436230032e-06 2.64789137572e-06 -1.07701415065e-05)
(3.11384525277e-06 2.24625991374e-06 -1.02455794911e-05)
(3.22847204952e-06 1.8648537346e-06 -9.75111454162e-06)
(3.30013016342e-06 1.51007364891e-06 -9.30055744167e-06)
(3.34062934153e-06 1.18427908279e-06 -8.90662229522e-06)
(3.36052205151e-06 8.8556976672e-07 -8.57955067538e-06)
(3.36569362571e-06 6.11472902508e-07 -8.32360975482e-06)
(3.36297698625e-06 3.56153815042e-07 -8.14060879705e-06)
(3.35412622837e-06 1.2218567987e-07 -8.02244034453e-06)
(2.32331340909e-07 2.74786995105e-06 -4.74436316497e-06)
(5.69486052418e-07 2.65367173329e-06 -4.66765410966e-06)
(9.03358540845e-07 2.49625068295e-06 -4.5475889843e-06)
(1.18362431402e-06 2.29039758958e-06 -4.40893983705e-06)
(1.40877661181e-06 2.05131049303e-06 -4.24449938615e-06)
(1.57790666799e-06 1.79508015885e-06 -4.0628825614e-06)
(1.69572904564e-06 1.53641018419e-06 -3.87430838829e-06)
(1.77028304539e-06 1.28692812588e-06 -3.68977639075e-06)
(1.81079208705e-06 1.05391233862e-06 -3.51646233511e-06)
(1.82610137619e-06 8.41303058308e-07 -3.35846853794e-06)
(1.82473679387e-06 6.50427284364e-07 -3.22043787131e-06)
(1.8142826422e-06 4.79698344677e-07 -3.10623785061e-06)
(1.79913518449e-06 3.27355582557e-07 -3.01608991477e-06)
(1.78296103908e-06 1.89209959419e-07 -2.9516540248e-06)
(1.77186527229e-06 6.531471135e-08 -2.90635831364e-06)
(1.21458682721e-07 5.67102918109e-07 -4.27519189245e-05)
(3.4139673696e-07 5.51953944554e-07 -4.23785637143e-05)
(5.55792137915e-07 5.18818610591e-07 -4.16934047349e-05)
(7.56575991432e-07 4.71354803007e-07 -4.07392592157e-05)
(9.42897331841e-07 4.12377687775e-07 -3.95650158106e-05)
(1.1099327724e-06 3.46753472738e-07 -3.82162007702e-05)
(1.25190350865e-06 2.79846586021e-07 -3.67498464065e-05)
(1.36549699716e-06 2.17944294694e-07 -3.52449826611e-05)
(1.45283634743e-06 1.6603203606e-07 -3.37895755004e-05)
(1.5200205127e-06 1.26022999531e-07 -3.24595820766e-05)
(1.57382538805e-06 9.70704703362e-08 -3.13093101799e-05)
(1.61922104764e-06 7.56949318024e-08 -3.03745652884e-05)
(1.6576356674e-06 5.7117870435e-08 -2.96761417175e-05)
(1.68906989725e-06 3.6015179956e-08 -2.92213898164e-05)
(1.71102653946e-06 1.24024428959e-08 -2.89985214421e-05)
(1.27418858135e-07 7.12435412932e-07 -4.18048851233e-05)
(3.58097105581e-07 6.90328654935e-07 -4.14616774442e-05)
(5.85150100719e-07 6.51424058284e-07 -4.07637182214e-05)
(7.95200474211e-07 5.94127280937e-07 -3.98013260052e-05)
(9.88506136489e-07 5.2446100638e-07 -3.86197218386e-05)
(1.15997537177e-06 4.48844219163e-07 -3.72645559533e-05)
(1.30456936624e-06 3.73745909362e-07 -3.57955280167e-05)
(1.42031384506e-06 3.05910891121e-07 -3.4296400215e-05)
(1.51075026852e-06 2.49620874809e-07 -3.28565289929e-05)
(1.58286018111e-06 2.05305884115e-07 -3.15488348534e-05)
(1.6435743247e-06 1.70315175263e-07 -3.04223898286e-05)
(1.69725753817e-06 1.39576963527e-07 -2.9508770367e-05)
(1.7436718498e-06 1.0725753798e-07 -2.88255670671e-05)
(1.78168078584e-06 6.87724210658e-08 -2.8378583959e-05)
(1.80640305762e-06 2.44608207263e-08 -2.81587943468e-05)
(1.40526300771e-07 9.59487307033e-07 -4.05060441116e-05)
(3.90891704641e-07 9.4114431736e-07 -4.011340937e-05)
(6.36704253899e-07 8.9187004071e-07 -3.94083551378e-05)
(8.62594167933e-07 8.19559803947e-07 -3.84387271004e-05)
(1.06813863713e-06 7.31942243906e-07 -3.7253144852e-05)
(1.24832041392e-06 6.37483599308e-07 -3.58977499054e-05)
(1.39902798873e-06 5.44233159265e-07 -3.44375034138e-05)
(1.51995066771e-06 4.59604193481e-07 -3.29589387312e-05)
(1.61607166664e-06 3.87285817866e-07 -3.15491291093e-05)
(1.69487094275e-06 3.26414861366e-07 -3.02754138738e-05)
(1.76283819701e-06 2.73125824744e-07 -2.91807534574e-05)
(1.82344521282e-06 2.21815857608e-07 -2.82924536802e-05)
(1.87512229392e-06 1.6688332423e-07 -2.76251591664e-05)
(1.91722339559e-06 1.0476971919e-07 -2.71835617271e-05)
(1.94214737776e-06 3.63775351489e-08 -2.69600063254e-05)
(1.57694742477e-07 1.34070929619e-06 -3.85527442182e-05)
(4.33836751897e-07 1.31635036475e-06 -3.81779763715e-05)
(7.07392974893e-07 1.25121430627e-06 -3.74781109108e-05)
(9.56530325286e-07 1.15643757285e-06 -3.65232710511e-05)
(1.18112879926e-06 1.04165270918e-06 -3.53565987566e-05)
(1.37586370717e-06 9.17678112273e-07 -3.4025147122e-05)
(1.53764273262e-06 7.94498926296e-07 -3.25976477942e-05)
(1.667778817e-06 6.80446086688e-07 -3.11609012416e-05)
(1.77245052472e-06 5.79009578189e-07 -2.97977858706e-05)
(1.85935075253e-06 4.88688639339e-07 -2.85694968948e-05)
(1.93445773947e-06 4.05235926428e-07 -2.75132492658e-05)
(2.0006609204e-06 3.23335863547e-07 -2.66528179921e-05)
(2.05558886754e-06 2.38107286372e-07 -2.60018686196e-05)
(2.0995146725e-06 1.46611051073e-07 -2.55647662286e-05)
(2.12384739506e-06 4.99967743895e-08 -2.53345503102e-05)
(1.81032799326e-07 1.80368647712e-06 -3.58688450691e-05)
(4.92073735174e-07 1.76908059833e-06 -3.54848504608e-05)
(8.00987573425e-07 1.68588866028e-06 -3.47939131932e-05)
(1.07946793954e-06 1.56445248028e-06 -3.38683702366e-05)
(1.32772192777e-06 1.41718052153e-06 -3.27431922514e-05)
(1.54029698044e-06 1.25692021788e-06 -3.14644765031e-05)
(1.715329703e-06 1.09566308405e-06 -3.01015201788e-05)
(1.85566467653e-06 9.42792115331e-07 -2.87376612156e-05)
(1.96837376908e-06 8.0219015942e-07 -2.74485329796e-05)
(2.06115080872e-06 6.72691234951e-07 -2.62878362352e-05)
(2.13961240624e-06 5.50634102469e-07 -2.52871698312e-05)
(2.20665017912e-06 4.31699567488e-07 -2.4466905822e-05)
(2.26013047755e-06 3.11993899397e-07 -2.38412213359e-05)
(2.30196476642e-06 1.89209227144e-07 -2.34156959992e-05)
(2.32285068508e-06 6.38395865468e-08 -2.31839344812e-05)
(2.07289309311e-07 2.30350979293e-06 -3.21569504164e-05)
(5.56930412667e-07 2.25966967637e-06 -3.17938252709e-05)
(9.04708044109e-07 2.15279229445e-06 -3.11322699553e-05)
(1.21408006844e-06 2.00077362696e-06 -3.02680189384e-05)
(1.48654907844e-06 1.81627519311e-06 -2.9224299232e-05)
(1.71634009805e-06 1.61482199349e-06 -2.80441567763e-05)
(1.90308705021e-06 1.41001527788e-06 -2.6793244574e-05)
(2.05095893714e-06 1.21243265782e-06 -2.55471044761e-05)
(2.16771455289e-06 1.02692592866e-06 -2.43710495158e-05)
(2.26109577558e-06 8.53574420662e-07 -2.33103674598e-05)
(2.33683595469e-06 6.90027795822e-07 -2.23922925111e-05)
(2.39853463331e-06 5.33102820152e-07 -2.16342949332e-05)
(2.44507956793e-06 3.79688143787e-07 -2.10500695599e-05)
(2.48054215259e-06 2.27544552276e-07 -2.06468607989e-05)
(2.49549066049e-06 7.62430439725e-08 -2.04196924355e-05)
(2.33381745029e-07 2.74354722314e-06 -2.72303663371e-05)
(6.15665673459e-07 2.68898256768e-06 -2.68658564162e-05)
(9.94854408573e-07 2.55949840185e-06 -2.62871931851e-05)
(1.32916621764e-06 2.37727727932e-06 -2.55267168149e-05)
(1.61838337472e-06 2.15744888646e-06 -2.46169885485e-05)
(1.85790606472e-06 1.91708602883e-06 -2.35919310055e-05)
(2.0487088309e-06 1.6713471654e-06 -2.25102004538e-05)
(2.19624536301e-06 1.43192699999e-06 -2.1435938085e-05)
(2.308840068e-06 1.20495848968e-06 -2.0421713947e-05)
(2.39446684427e-06 9.92261717476e-07 -1.95034747313e-05)
(2.45958281179e-06 7.93099742672e-07 -1.87054741631e-05)
(2.50921287931e-06 6.0517207001e-07 -1.80441602272e-05)
(2.54363861444e-06 4.25789520225e-07 -1.7531358837e-05)
(2.56905955741e-06 2.52332664268e-07 -1.71734024178e-05)
(2.57598783158e-06 8.39994961664e-08 -1.69651698159e-05)
(2.45707971442e-07 2.97567877392e-06 -2.08655764256e-05)
(6.38108057606e-07 2.90750573683e-06 -2.05839530868e-05)
(1.02802238443e-06 2.76123552113e-06 -2.00915355342e-05)
(1.36492074766e-06 2.55877913867e-06 -1.94894728953e-05)
(1.6509534841e-06 2.31640443031e-06 -1.8769834313e-05)
(1.88207351867e-06 2.05226736709e-06 -1.79663255348e-05)
(2.06080608694e-06 1.78208910546e-06 -1.71230455445e-05)
(2.19369050929e-06 1.51813830891e-06 -1.62883616675e-05)
(2.28943536308e-06 1.26760649153e-06 -1.54994288432e-05)
(2.35632854875e-06 1.03386100743e-06 -1.47813292906e-05)
(2.40187841414e-06 8.17493096888e-07 -1.41544412187e-05)
(2.43263353781e-06 6.16619081869e-07 -1.36341423412e-05)
(2.4500625597e-06 4.28805020957e-07 -1.32292824111e-05)
(2.46149535707e-06 2.51316231225e-07 -1.2942943988e-05)
(2.45842489448e-06 8.31045721639e-08 -1.2768183692e-05)
(2.22930303991e-07 2.69136267528e-06 -1.30975748248e-05)
(5.68938767151e-07 2.6192409446e-06 -1.28765157581e-05)
(9.09257516366e-07 2.4765400913e-06 -1.25732466677e-05)
(1.19929012852e-06 2.28542695078e-06 -1.21797980836e-05)
(1.43902675103e-06 2.05944179085e-06 -1.1720363253e-05)
(1.62654110655e-06 1.815204185e-06 -1.12067054613e-05)
(1.76553953818e-06 1.56662433472e-06 -1.06695430143e-05)
(1.86263171804e-06 1.32477631217e-06 -1.01393349732e-05)
(1.9260538782e-06 1.09647162874e-06 -9.63797415213e-06)
(1.96366393454e-06 8.85432442794e-07 -9.17948248341e-06)
(1.98310318421e-06 6.92724681957e-07 -8.77749804961e-06)
(1.99117574987e-06 5.165664259e-07 -8.44288730148e-06)
(1.9896764179e-06 3.55527159611e-07 -8.18009361077e-06)
(1.98635763266e-06 2.06695023176e-07 -7.99088919941e-06)
(1.97419968152e-06 6.7918034064e-08 -7.86909465699e-06)
(1.15937998714e-07 1.43685341982e-06 -4.38574369731e-06)
(2.98834525551e-07 1.38418417849e-06 -4.31072727766e-06)
(4.7295728821e-07 1.29760649147e-06 -4.19489807203e-06)
(6.17871059542e-07 1.18499638058e-06 -4.06030900981e-06)
(7.32177745031e-07 1.05503615656e-06 -3.90077259575e-06)
(8.15710618837e-07 9.17052076772e-07 -3.72388048631e-06)
(8.71294521157e-07 7.79225009614e-07 -3.53945701884e-06)
(9.03709251573e-07 6.47846647998e-07 -3.35812412225e-06)
(9.18287631721e-07 5.26713773472e-07 -3.18682342178e-06)
(9.20117116057e-07 4.17721298494e-07 -3.02969893365e-06)
(9.1408777167e-07 3.2115973147e-07 -2.89179733222e-06)
(9.04399996912e-07 2.35568185863e-07 -2.77698988423e-06)
(8.9250813837e-07 1.60132812005e-07 -2.68566927691e-06)
(8.81549175528e-07 9.22930148964e-08 -2.62030151614e-06)
(8.72679020008e-07 2.93591221009e-08 -2.57575243701e-06)
(4.12676459987e-08 -2.95597392031e-07 -4.29411422097e-05)
(1.16138783615e-07 -2.97053403293e-07 -4.25673993495e-05)
(1.89036809211e-07 -2.94346374216e-07 -4.18851328168e-05)
(2.56841179522e-07 -2.9407355718e-07 -4.09327519317e-05)
(3.1955525412e-07 -2.95231908838e-07 -3.97598017312e-05)
(3.75076901745e-07 -2.94683191355e-07 -3.84115627685e-05)
(4.20937011077e-07 -2.90111116214e-07 -3.69451026664e-05)
(4.56164083068e-07 -2.78875140022e-07 -3.54397396069e-05)
(4.82422686319e-07 -2.5909181002e-07 -3.39835233058e-05)
(5.03067419019e-07 -2.30303623796e-07 -3.26523012675e-05)
(5.2148857e-07 -1.93229285853e-07 -3.15001931876e-05)
(5.39991742489e-07 -1.50291247627e-07 -3.05635315759e-05)
(5.57922305321e-07 -1.04943094924e-07 -2.98634979724e-05)
(5.7299807054e-07 -6.2042693547e-08 -2.94074160999e-05)
(5.84914545148e-07 -2.0923324399e-08 -2.91816717256e-05)
(4.42409400329e-08 -1.71306623432e-07 -4.19648575818e-05)
(1.23668930306e-07 -1.76074472905e-07 -4.16206584883e-05)
(2.03409892828e-07 -1.7392084093e-07 -4.09238050108e-05)
(2.7716851807e-07 -1.78227998247e-07 -3.99608638823e-05)
(3.45054309794e-07 -1.84349941569e-07 -3.8778030191e-05)
(4.04739982401e-07 -1.88512662869e-07 -3.74207985683e-05)
(4.54234463972e-07 -1.87941053655e-07 -3.59496188279e-05)
(4.93416657995e-07 -1.79981644661e-07 -3.44487122177e-05)
(5.24809951774e-07 -1.63376486549e-07 -3.30075113764e-05)
(5.52303415477e-07 -1.38785106219e-07 -3.16986683778e-05)
(5.79356647668e-07 -1.08457935627e-07 -3.05708436865e-05)
(6.077491995e-07 -7.63043176762e-08 -2.96561026011e-05)
(6.35140382609e-07 -4.70258957817e-08 -2.89720341499e-05)
(6.57648040361e-07 -2.45070634044e-08 -2.85248347338e-05)
(6.72396892281e-07 -7.00638863419e-09 -2.83040514539e-05)
(5.03886747039e-08 -3.08683122977e-10 -4.06698585664e-05)
(1.40170815649e-07 2.8574243815e-10 -4.02844178854e-05)
(2.30152661665e-07 -2.91035312574e-09 -3.95779852676e-05)
(3.12581559209e-07 -1.488345978e-08 -3.86072901759e-05)
(3.87717841913e-07 -3.04673966255e-08 -3.7419087901e-05)
(4.53134327545e-07 -4.4766712794e-08 -3.60597136793e-05)
(5.07590249107e-07 -5.42266402212e-08 -3.45951087488e-05)
(5.51905870672e-07 -5.60628331738e-08 -3.31124330273e-05)
(5.89264555126e-07 -4.96480950886e-08 -3.16990893242e-05)
(6.23567544391e-07 -3.66653658481e-08 -3.04223582349e-05)
(6.57696298401e-07 -2.03336739289e-08 -2.93249102549e-05)
(6.92557033234e-07 -4.94522692804e-09 -2.84344578837e-05)
(7.24627512638e-07 5.0315763815e-09 -2.77655882005e-05)
(7.5057787109e-07 7.13897446058e-09 -2.73232352276e-05)
(7.66509894828e-07 3.45321267699e-09 -2.70982582178e-05)
(5.9407581893e-08 2.47464245954e-07 -3.87396472796e-05)
(1.62641011042e-07 2.45878850914e-07 -3.8361733759e-05)
(2.67179600268e-07 2.33159072944e-07 -3.76601036132e-05)
(3.62709688186e-07 2.08771530016e-07 -3.67033206253e-05)
(4.49021164899e-07 1.78005344933e-07 -3.55333523814e-05)
(5.23735492076e-07 1.47009739566e-07 -3.41972543649e-05)
(5.86155708876e-07 1.20225378185e-07 -3.27646241068e-05)
(6.37840077154e-07 1.0069729567e-07 -3.13228065891e-05)
(6.82355043976e-07 8.86920877388e-08 -2.99550404666e-05)
(7.23386138028e-07 8.20242305612e-08 -2.87225400545e-05)
(7.63225505763e-07 7.72536686663e-08 -2.76623464098e-05)
(8.02219375774e-07 7.04365183038e-08 -2.67985638398e-05)
(8.36100940357e-07 5.78702608921e-08 -2.61448026025e-05)
(8.62553011374e-07 3.82332334235e-08 -2.57058572252e-05)
(8.78147880848e-07 1.34861635958e-08 -2.5472496288e-05)
(7.17620795516e-08 5.3758012494e-07 -3.6052889394e-05)
(1.94227087374e-07 5.28075590719e-07 -3.56645901555e-05)
(3.18310048888e-07 5.0471966867e-07 -3.49733217763e-05)
(4.30680651168e-07 4.65178932823e-07 -3.4046279707e-05)
(5.30929468599e-07 4.16112106625e-07 -3.29183211537e-05)
(6.16840386799e-07 3.64455624964e-07 -3.16354381579e-05)
(6.88299086689e-07 3.15552736538e-07 -3.02675750923e-05)
(7.47477371812e-07 2.72823227073e-07 -2.88985098754e-05)
(7.98121128142e-07 2.36609808606e-07 -2.7604224608e-05)
(8.43603960456e-07 2.04929376615e-07 -2.64385209749e-05)
(8.85834913647e-07 1.74865578984e-07 -2.54330370343e-05)
(9.25149244578e-07 1.43335730078e-07 -2.46085541791e-05)
(9.57317368321e-07 1.07491556079e-07 -2.39792823274e-05)
(9.81719656527e-07 6.68913776682e-08 -2.35516196732e-05)
(9.95402831783e-07 2.27083771094e-08 -2.33169823763e-05)
(8.56297883046e-08 8.44862879454e-07 -3.23286617996e-05)
(2.29698054699e-07 8.29085965208e-07 -3.1964974484e-05)
(3.75853893627e-07 7.92412623649e-07 -3.13024194755e-05)
(5.06202386805e-07 7.35358101176e-07 -3.0436075797e-05)
(6.2110598637e-07 6.65125948429e-07 -2.93889797692e-05)
(7.18176202089e-07 5.89677036736e-07 -2.82043337297e-05)
(7.97954621564e-07 5.1510594537e-07 -2.69482060222e-05)
(8.63020049116e-07 4.45388636576e-07 -2.56964508449e-05)
(9.17177787827e-07 3.81427749034e-07 -2.45146140462e-05)
(9.63593899103e-07 3.22092834782e-07 -2.34480607054e-05)
(1.00423583621e-06 2.65477160991e-07 -2.25242971108e-05)
(1.04005527031e-06 2.09422240106e-07 -2.17614454138e-05)
(1.06740820827e-06 1.51685222221e-07 -2.11734161859e-05)
(1.08780544885e-06 9.20321229895e-08 -2.07682737477e-05)
(1.09857743391e-06 3.07868151161e-08 -2.05388766509e-05)
(9.9752989901e-08 1.11838418677e-06 -2.73744818304e-05)
(2.63813801938e-07 1.09813315968e-06 -2.70095358085e-05)
(4.28368249327e-07 1.04759787434e-06 -2.64307172832e-05)
(5.73965651921e-07 9.732226832e-07 -2.56687550345e-05)
(7.00019939164e-07 8.82325547373e-07 -2.4756332362e-05)
(8.04609161853e-07 7.83899224589e-07 -2.37274763295e-05)
(8.8883053062e-07 6.84606597533e-07 -2.26410394075e-05)
(9.55599589966e-07 5.89087156805e-07 -2.15613630516e-05)
(1.00874922855e-06 4.9908765909e-07 -2.05411785226e-05)
(1.05143120051e-06 4.14638924087e-07 -1.96165406478e-05)
(1.08613975875e-06 3.34897389886e-07 -1.8812210275e-05)
(1.11494774718e-06 2.58340754541e-07 -1.81453733218e-05)
(1.1349267991e-06 1.83152956002e-07 -1.76280432361e-05)
(1.14979068067e-06 1.09027943303e-07 -1.7267016851e-05)
(1.15646255304e-06 3.60541116704e-08 -1.70550083531e-05)
(1.07568098511e-07 1.2802887082e-06 -2.09594880542e-05)
(2.79815921203e-07 1.25372163486e-06 -2.0676162727e-05)
(4.53409113128e-07 1.19356359544e-06 -2.01847546248e-05)
(6.03594273294e-07 1.10678272371e-06 -1.95812245689e-05)
(7.3093030933e-07 1.00217038669e-06 -1.88598240494e-05)
(8.34034597568e-07 8.88525240747e-07 -1.80534154714e-05)
(9.14395877513e-07 7.73007783471e-07 -1.7206242339e-05)
(9.75321722662e-07 6.60667259981e-07 -1.63667179145e-05)
(1.02067902442e-06 5.54128349327e-07 -1.55720876068e-05)
(1.05379693617e-06 4.54485956236e-07 -1.4847659517e-05)
(1.0779519032e-06 3.61650233481e-07 -1.42145284351e-05)
(1.09623356761e-06 2.74311012554e-07 -1.36885011812e-05)
(1.10620539358e-06 1.91102707643e-07 -1.32781650192e-05)
(1.11332668231e-06 1.12097415519e-07 -1.29867968709e-05)
(1.11445077368e-06 3.68098799864e-08 -1.28073987648e-05)
(9.90165513595e-08 1.18898575943e-06 -1.31062073094e-05)
(2.55548216422e-07 1.15842580952e-06 -1.28855934481e-05)
(4.09870955684e-07 1.09741309639e-06 -1.25810351689e-05)
(5.40771519107e-07 1.01359324441e-06 -1.21871780491e-05)
(6.48924960037e-07 9.13898174213e-07 -1.1726574596e-05)
(7.33239545388e-07 8.06471919058e-07 -1.12113326678e-05)
(7.96069639475e-07 6.97356389382e-07 -1.06718183026e-05)
(8.40503561981e-07 5.91298976378e-07 -1.01383776554e-05)
(8.70185693523e-07 4.91069495921e-07 -9.63288567377e-06)
(8.88418124187e-07 3.98210696517e-07 -9.16968162049e-06)
(8.9876648311e-07 3.1294099129e-07 -8.7631016344e-06)
(9.04445219387e-07 2.33965902256e-07 -8.42387979925e-06)
(9.03360332724e-07 1.61089794869e-07 -8.15619007543e-06)
(9.03157674528e-07 9.39428728834e-08 -7.96269621161e-06)
(8.98261541684e-07 3.06820893208e-08 -7.84124803145e-06)
(4.92365376191e-08 6.14825421567e-07 -4.29352508686e-06)
(1.29219699599e-07 5.91946058479e-07 -4.21896927802e-06)
(2.04921212154e-07 5.5485058033e-07 -4.10498445941e-06)
(2.68098980447e-07 5.06291019485e-07 -3.97194202088e-06)
(3.17527044404e-07 4.50218501974e-07 -3.81449591405e-06)
(3.53444635782e-07 3.90986819885e-07 -3.63960654606e-06)
(3.77154053019e-07 3.32105717272e-07 -3.45694115926e-06)
(3.90870094293e-07 2.76184036196e-07 -3.27690811961e-06)
(3.96914037177e-07 2.2477590868e-07 -3.10635019537e-06)
(3.97504142943e-07 1.78646105958e-07 -2.94955025606e-06)
(3.94888581512e-07 1.37755857266e-07 -2.81181516503e-06)
(3.90948194418e-07 1.01130200755e-07 -2.69670974806e-06)
(3.85149760685e-07 6.88898683684e-08 -2.60506485028e-06)
(3.80699369037e-07 3.98782627212e-08 -2.54007987193e-06)
(3.76486922226e-07 1.25115372237e-08 -2.49587159362e-06)
(-3.74633064939e-08 -1.29170560889e-06 -4.31320739648e-05)
(-1.10291603395e-07 -1.26830776033e-06 -4.27623542116e-05)
(-1.81836422943e-07 -1.22824808562e-06 -4.20816743107e-05)
(-2.50474305624e-07 -1.17770526641e-06 -4.11304109559e-05)
(-3.14867251002e-07 -1.11760535601e-06 -3.99577514711e-05)
(-3.74753854241e-07 -1.04651965224e-06 -3.86088324547e-05)
(-4.29944347747e-07 -9.65051641424e-07 -3.71410155226e-05)
(-4.79838934518e-07 -8.73931340702e-07 -3.56340749063e-05)
(-5.2332836784e-07 -7.74007530464e-07 -3.41763426802e-05)
(-5.59148794322e-07 -6.66050955786e-07 -3.28435481583e-05)
(-5.8625912824e-07 -5.5073566442e-07 -3.16894344671e-05)
(-6.03790559948e-07 -4.29692941975e-07 -3.07507840023e-05)
(-6.12583629791e-07 -3.05360526064e-07 -3.00493803484e-05)
(-6.16027470503e-07 -1.82385903033e-07 -2.95926375268e-05)
(-6.17923020388e-07 -6.13204159729e-08 -2.93657844145e-05)
(-3.90266088101e-08 -1.16194930384e-06 -4.21533306403e-05)
(-1.15186469873e-07 -1.1421212142e-06 -4.18069474177e-05)
(-1.86206590897e-07 -1.09898191581e-06 -4.11111474954e-05)
(-2.52569971337e-07 -1.04908414793e-06 -4.01487350831e-05)
(-3.1374307262e-07 -9.89927549697e-07 -3.89653701573e-05)
(-3.69518794252e-07 -9.20150746984e-07 -3.76066703106e-05)
(-4.19407637557e-07 -8.40397817891e-07 -3.61337027695e-05)
(-4.62394580719e-07 -7.51573577887e-07 -3.46310513102e-05)
(-4.97062243429e-07 -6.5495587683e-07 -3.31882948631e-05)
(-5.22052517397e-07 -5.52143226347e-07 -3.18778429737e-05)
(-5.36526212298e-07 -4.45232949833e-07 -3.07479442293e-05)
(-5.40341855446e-07 -3.37508980793e-07 -2.98311911569e-05)
(-5.36205306152e-07 -2.33037447064e-07 -2.91456134599e-05)
(-5.29591297754e-07 -1.35864880097e-07 -2.86975557304e-05)
(-5.26618300246e-07 -4.4178997517e-08 -2.84748930944e-05)
(-3.863629123e-08 -1.04397824352e-06 -4.08516840495e-05)
(-1.13046801436e-07 -1.01876290903e-06 -4.04696697445e-05)
(-1.81058657885e-07 -9.75476125488e-07 -3.97628111464e-05)
(-2.44049361936e-07 -9.25786134163e-07 -3.87925134091e-05)
(-3.01226688979e-07 -8.67624294942e-07 -3.76032475768e-05)
(-3.52445401829e-07 -7.99570957084e-07 -3.62417876636e-05)
(-3.966985606e-07 -7.22354685632e-07 -3.47748738957e-05)
(-4.32618971903e-07 -6.37249251538e-07 -3.32900535753e-05)
(-4.58769366295e-07 -5.46202161702e-07 -3.18748890815e-05)
(-4.74240293478e-07 -4.51635473583e-07 -3.05964045284e-05)
(-4.79032473638e-07 -3.56428835506e-07 -2.94969076151e-05)
(-4.74125802251e-07 -2.6420382171e-07 -2.86044945746e-05)
(-4.63645347998e-07 -1.78702976294e-07 -2.79338870173e-05)
(-4.53204231364e-07 -1.02404208341e-07 -2.74900247205e-05)
(-4.48675176714e-07 -3.29825558705e-08 -2.72637784932e-05)
(-3.74117124354e-08 -9.0789044641e-07 -3.8927018777e-05)
(-1.09850634722e-07 -8.82840715334e-07 -3.854697543e-05)
(-1.74319738647e-07 -8.4185124636e-07 -3.7844238966e-05)
(-2.3263254657e-07 -7.9428747288e-07 -3.68866081564e-05)
(-2.8462689315e-07 -7.39169763851e-07 -3.57148639215e-05)
(-3.29830662672e-07 -6.75095229471e-07 -3.43763064006e-05)
(-3.67102787888e-07 -6.0299773387e-07 -3.29412842448e-05)
(-3.95075666675e-07 -5.2458916578e-07 -3.14974164305e-05)
(-4.12678838182e-07 -4.42410438613e-07 -3.01279756903e-05)
(-4.19751097648e-07 -3.59345925836e-07 -2.88938030986e-05)
(-4.17197031138e-07 -2.78366507027e-07 -2.78315969234e-05)
(-4.06797930959e-07 -2.0264306561e-07 -2.6965833893e-05)
(-3.93631722743e-07 -1.34964927762e-07 -2.63101764883e-05)
(-3.82902719865e-07 -7.62751709594e-08 -2.58696324296e-05)
(-3.78507582519e-07 -2.44379096367e-08 -2.56354241275e-05)
(-3.48803518833e-08 -7.70874695589e-07 -3.62375388004e-05)
(-1.02203258085e-07 -7.50514271159e-07 -3.58466518474e-05)