/*--------------------------------*- C++ -*----------------------------------*\
| =========                 |                                                 |
| \\      /  F ield         | foam-extend: Open Source CFD                    |
|  \\    /   O peration     | Version:     4.1                                |
|   \\  /    A nd           | Web:         http://www.foam-extend.org         |
|    \\/     M anipulation  |                                                 |
\*---------------------------------------------------------------------------*/
FoamFile
{
    version     2.0;
    format      ascii;
    class       vectorField;
    location    "1";
    object      solidsCellD_iteration6;
}
// * * * * * * * * * * * * * * * * * * * * * * * * * * * * * * * * * * * * * //


1050
(
(7.17772187159e-08 7.42234260014e-09 -2.73834167594e-05)
(2.07313627451e-07 -4.68126742486e-09 -2.7173792987e-05)
(3.38298989094e-07 -3.49804871773e-08 -2.67627616239e-05)
(4.56446736759e-07 -7.63890361356e-08 -2.61801900838e-05)
(5.59127053516e-07 -1.20548061733e-07 -2.54587237236e-05)
(6.44794457988e-07 -1.62355746857e-07 -2.46361419799e-05)
(7.13040846994e-07 -1.98433656851e-07 -2.37499365125e-05)
(7.62514401826e-07 -2.24651904529e-07 -2.28428312918e-05)
(7.93145302032e-07 -2.36332946482e-07 -2.19647044427e-05)
(8.08306700996e-07 -2.30316869409e-07 -2.11629686864e-05)
(8.13648916941e-07 -2.06763773765e-07 -2.04737463687e-05)
(8.14813232714e-07 -1.69184722144e-07 -1.99193333427e-05)
(8.15466353659e-07 -1.2285614575e-07 -1.95094635598e-05)
(8.1691169759e-07 -7.33280904572e-08 -1.92442389899e-05)
(8.17896255834e-07 -2.39916597685e-08 -1.91177582647e-05)
(7.74895020935e-08 1.72567579597e-07 -2.70051081756e-05)
(2.21950892729e-07 1.56094962225e-07 -2.67810851406e-05)
(3.61528143259e-07 1.16815804384e-07 -2.63637928828e-05)
(4.8712702529e-07 6.50218475245e-08 -2.57775860485e-05)
(5.96215999638e-07 1.06602565586e-08 -2.50529569863e-05)
(6.87163099527e-07 -4.01913010921e-08 -2.42291992104e-05)
(7.60325160839e-07 -8.4143688293e-08 -2.33431547919e-05)
(8.15088715317e-07 -1.16760700151e-07 -2.24384624568e-05)
(8.5251634171e-07 -1.33570472787e-07 -2.156663291e-05)
(8.76970274545e-07 -1.32690485351e-07 -2.07746443224e-05)
(8.94378521401e-07 -1.16257395596e-07 -2.00965304581e-05)
(9.09630709853e-07 -8.9775190299e-08 -1.95522431445e-05)
(9.24455299479e-07 -5.98673701067e-08 -1.91497742646e-05)
(9.37620492311e-07 -3.21771566202e-08 -1.88885472006e-05)
(9.45096639225e-07 -9.07927811424e-09 -1.87636776466e-05)
(8.96199973866e-08 4.38623345247e-07 -2.63128323862e-05)
(2.52853454521e-07 4.1718221374e-07 -2.60876034022e-05)
(4.09735389696e-07 3.69685727565e-07 -2.56731981435e-05)
(5.52640529116e-07 3.06664326042e-07 -2.50875753395e-05)
(6.76734573462e-07 2.39015746135e-07 -2.43643761838e-05)
(7.80870605304e-07 1.73996185677e-07 -2.35431719891e-05)
(8.65806869485e-07 1.15246800033e-07 -2.26628689457e-05)
(9.31767712797e-07 6.73472364604e-08 -2.17680716656e-05)
(9.80900401846e-07 3.45063640205e-08 -2.09096587908e-05)
(1.01820780895e-06 1.77406524565e-08 -2.0132228045e-05)
(1.04941427208e-06 1.38840689967e-08 -1.94671803868e-05)
(1.0784007922e-06 1.66933875695e-08 -1.89325646614e-05)
(1.10542915516e-06 1.95187511229e-08 -1.85357274551e-05)
(1.12846593279e-06 1.6887240929e-08 -1.82769319346e-05)
(1.14075021059e-06 7.79315923979e-09 -1.81502493154e-05)
(1.02971817136e-07 8.01402151212e-07 -2.52300500136e-05)
(2.90937831235e-07 7.76647581912e-07 -2.501050231e-05)
(4.75904508042e-07 7.20727959587e-07 -2.45971619697e-05)
(6.44293983009e-07 6.43238170949e-07 -2.40199037249e-05)
(7.91724330566e-07 5.56393619921e-07 -2.33059329749e-05)
(9.16216740276e-07 4.69162487219e-07 -2.24974061049e-05)
(1.01894190391e-06 3.86238235291e-07 -2.16347754139e-05)
(1.10100798144e-06 3.12679913182e-07 -2.07621004404e-05)
(1.16541153741e-06 2.52615267556e-07 -1.99278617736e-05)
(1.21744647292e-06 2.0669498766e-07 -1.91732602745e-05)
(1.26249275161e-06 1.71568140606e-07 -1.85268601811e-05)
(1.30363062295e-06 1.41135536646e-07 -1.80052042988e-05)
(1.34005273235e-06 1.09438307961e-07 -1.76155176358e-05)
(1.36957706912e-06 7.12912536648e-08 -1.73595449939e-05)
(1.38509819663e-06 2.6231177007e-08 -1.72309472913e-05)
(1.2323073474e-07 1.22788696722e-06 -2.3657126688e-05)
(3.46297191737e-07 1.20029322613e-06 -2.34322822206e-05)
(5.66451717849e-07 1.13455709191e-06 -2.30273437525e-05)
(7.6659508967e-07 1.03952611563e-06 -2.24666968424e-05)
(9.41985366016e-07 9.28955265081e-07 -2.17761420221e-05)
(1.0903654729e-06 8.13526433952e-07 -2.09982988962e-05)
(1.21349532944e-06 6.99488825518e-07 -2.01726158337e-05)
(1.31331482221e-06 5.92590192331e-07 -1.93406803978e-05)
(1.39341053639e-06 4.97107924936e-07 -1.85470681795e-05)
(1.45913686226e-06 4.13897246802e-07 -1.7828857955e-05)
(1.51560273547e-06 3.40262955183e-07 -1.72117232462e-05)
(1.56559365267e-06 2.70973613711e-07 -1.67111573713e-05)
(1.60805889054e-06 2.00966200436e-07 -1.63343788631e-05)
(1.64120733829e-06 1.25683807725e-07 -1.60840121232e-05)
(1.65752322264e-06 4.45153850671e-08 -1.59542593618e-05)
(1.47344861546e-07 1.69365195294e-06 -2.14393939394e-05)
(4.10257746738e-07 1.65993776358e-06 -2.12178323227e-05)
(6.69650214338e-07 1.58039856367e-06 -2.08281829784e-05)
(9.04213910147e-07 1.46485494961e-06 -2.03006492757e-05)
(1.10968858311e-06 1.3264046883e-06 -1.96552165665e-05)
(1.28322282557e-06 1.17810560566e-06 -1.89327394313e-05)
(1.42711247008e-06 1.02779363392e-06 -1.81693939996e-05)
(1.54390071457e-06 8.82184790869e-07 -1.74025907927e-05)
(1.6376209612e-06 7.46076988051e-07 -1.66718899333e-05)
(1.71371379133e-06 6.21017448774e-07 -1.60097082057e-05)
(1.77730617756e-06 5.05513684363e-07 -1.54385464181e-05)
(1.83136607515e-06 3.95674985686e-07 -1.49729318143e-05)
(1.87515083656e-06 2.87273574042e-07 -1.46204000572e-05)
(1.90789001819e-06 1.76151420694e-07 -1.43836811845e-05)
(1.92220274298e-06 6.13470642509e-08 -1.42572107163e-05)
(1.72304415996e-07 2.14199067526e-06 -1.84255874199e-05)
(4.75612109306e-07 2.10302368475e-06 -1.82197841099e-05)
(7.74254302179e-07 2.00604777678e-06 -1.78671775328e-05)
(1.04180812028e-06 1.86704736993e-06 -1.73921952813e-05)
(1.27362483995e-06 1.69913996616e-06 -1.68211853157e-05)
(1.46812041715e-06 1.51651921105e-06 -1.61857562319e-05)
(1.62778080699e-06 1.32875526161e-06 -1.55172546636e-05)
(1.75582297026e-06 1.14370880678e-06 -1.48472500284e-05)
(1.85680017983e-06 9.6700904935e-07 -1.42088608468e-05)
(1.93644557858e-06 8.0116585192e-07 -1.36291724854e-05)
(2.00027658524e-06 6.46002000438e-07 -1.31270923507e-05)
(2.05189293309e-06 4.9909766437e-07 -1.27153986545e-05)
(2.09121311637e-06 3.57148426092e-07 -1.24015017879e-05)
(2.11887700301e-06 2.1616851018e-07 -1.21881328623e-05)
(2.12835300188e-06 7.45749825741e-08 -1.20704146686e-05)
(1.93398402406e-07 2.47251773854e-06 -1.44685948251e-05)
(5.24574644507e-07 2.42380126369e-06 -1.42868032988e-05)
(8.49470107646e-07 2.31234676715e-06 -1.39873778949e-05)
(1.13632423915e-06 2.15250302893e-06 -1.36038527564e-05)
(1.38194050647e-06 1.95943663073e-06 -1.31425809179e-05)
(1.58472572118e-06 1.74853224048e-06 -1.26336547402e-05)
(1.74775478603e-06 1.53054726565e-06 -1.20999329526e-05)
(1.87495623367e-06 1.31438149056e-06 -1.15654916004e-05)
(1.97163432481e-06 1.10664086811e-06 -1.10558514418e-05)
(2.04408161461e-06 9.10796507503e-07 -1.0592116827e-05)
(2.0984727445e-06 7.27700713534e-07 -1.0189412049e-05)
(2.13932344729e-06 5.56045932048e-07 -9.85794933117e-06)
(2.16769909538e-06 3.93339120925e-07 -9.6038314925e-06)
(2.18602768099e-06 2.35728610758e-07 -9.42923887234e-06)
(2.18961585444e-06 8.08858303555e-08 -9.33072906057e-06)
(1.90021965353e-07 2.44827930258e-06 -9.43453349756e-06)
(5.10850967005e-07 2.38743990983e-06 -9.30402603808e-06)
(8.22010149204e-07 2.27088164676e-06 -9.1015416051e-06)
(1.09098011695e-06 2.10864592197e-06 -8.8396874697e-06)
(1.31686882869e-06 1.91414516501e-06 -8.53431039975e-06)
(1.49858515699e-06 1.70209627075e-06 -8.19722854222e-06)
(1.63986810454e-06 1.48326530083e-06 -7.84485470399e-06)
(1.74493251463e-06 1.26662265218e-06 -7.49242414489e-06)
(1.81966588297e-06 1.05896049887e-06 -7.15597203224e-06)
(1.8706489942e-06 8.64244625879e-07 -6.84939067967e-06)
(1.90438177965e-06 6.83858732106e-07 -6.58310910693e-06)
(1.92603843907e-06 5.17012156415e-07 -6.36400125059e-06)
(1.93787168265e-06 3.61910053598e-07 -6.19573148529e-06)
(1.94406239586e-06 2.14538265213e-07 -6.07984798571e-06)
(1.94109128403e-06 7.31429119117e-08 -6.0131747478e-06)
(1.2886714664e-07 1.63875927884e-06 -3.40834107906e-06)
(3.36330740399e-07 1.58711182058e-06 -3.35875362903e-06)
(5.36635673899e-07 1.49910129079e-06 -3.28074745257e-06)
(7.07149611319e-07 1.38136369394e-06 -3.18745908856e-06)
(8.45289231445e-07 1.24304931667e-06 -3.07521555454e-06)
(9.5142759438e-07 1.09401710315e-06 -2.95260351876e-06)
(1.02804200626e-06 9.42215329264e-07 -2.82475701997e-06)
(1.07901088583e-06 7.9402166295e-07 -2.69712988032e-06)
(1.1092420373e-06 6.54315040359e-07 -2.57559054814e-06)
(1.12408543494e-06 5.25895154622e-07 -2.46523470261e-06)
(1.12867517104e-06 4.0964583947e-07 -2.37004531122e-06)
(1.12732537804e-06 3.04919467288e-07 -2.29246359738e-06)
(1.12267922194e-06 2.10428603942e-07 -2.23348369432e-06)
(1.11765252513e-06 1.23128128747e-07 -2.19427395596e-06)
(1.11325676937e-06 4.18016242633e-08 -2.17217283954e-06)
(3.97261951879e-08 -2.73951807511e-07 -2.7487535145e-05)
(1.1480349404e-07 -2.7782877239e-07 -2.72819125004e-05)
(1.87023145371e-07 -2.88160746879e-07 -2.68721249318e-05)
(2.52258204933e-07 -3.0335343934e-07 -2.62911699054e-05)
(3.08019254914e-07 -3.17523843531e-07 -2.55717026205e-05)
(3.53288586805e-07 -3.27250354041e-07 -2.47503304036e-05)
(3.87682666305e-07 -3.30429430589e-07 -2.38636972728e-05)
(4.1059037274e-07 -3.24903910671e-07 -2.29546625275e-05)
(4.22741487341e-07 -3.08498800242e-07 -2.20741526029e-05)
(4.27100374128e-07 -2.79942988901e-07 -2.1270112634e-05)
(4.27702566298e-07 -2.39895214564e-07 -2.05787545187e-05)
(4.28186994923e-07 -1.91069926568e-07 -2.00225424419e-05)
(4.30440432426e-07 -1.37163854051e-07 -1.96113287994e-05)
(4.35050318577e-07 -8.24295741331e-08 -1.93454421957e-05)
(4.42778004336e-07 -2.72704506434e-08 -1.92195870835e-05)
(4.24857444572e-08 -1.5242536849e-07 -2.71127880098e-05)
(1.23665265509e-07 -1.55654025957e-07 -2.68914820991e-05)
(2.03469414374e-07 -1.70609417157e-07 -2.64739729893e-05)
(2.74351109185e-07 -1.92036891432e-07 -2.58883756363e-05)
(3.35210092202e-07 -2.12410480377e-07 -2.51633948534e-05)
(3.84881091397e-07 -2.27753803446e-07 -2.43385135697e-05)
(4.23623944244e-07 -2.35945248458e-07 -2.34502163667e-05)
(4.51354315809e-07 -2.34763977503e-07 -2.25425132452e-05)
(4.69491219258e-07 -2.22319588475e-07 -2.16677509214e-05)
(4.81457737378e-07 -1.9829042341e-07 -2.08732066199e-05)
(4.91312882319e-07 -1.64691627549e-07 -2.01929595767e-05)
(5.02109000981e-07 -1.25598623613e-07 -1.96470873676e-05)
(5.14267807985e-07 -8.56747469517e-08 -1.92435885383e-05)
(5.26906579658e-07 -4.88925412853e-08 -1.89821254551e-05)
(5.38596668771e-07 -1.53516802068e-08 -1.88577135285e-05)
(5.14507662947e-08 3.83910783184e-08 -2.64388214443e-05)
(1.46027153213e-07 3.40064903082e-08 -2.62117883566e-05)
(2.36394645624e-07 1.24430250719e-08 -2.57987732498e-05)
(3.18290790723e-07 -1.74852500204e-08 -2.52135091537e-05)
(3.88535901729e-07 -4.81237758609e-08 -2.44893142029e-05)
(4.46512806103e-07 -7.42561819689e-08 -2.36663563882e-05)
(4.93046179157e-07 -9.34478943167e-08 -2.2783187333e-05)
(5.28660380901e-07 -1.03303330388e-07 -2.18847637478e-05)
(5.55360901318e-07 -1.02239160958e-07 -2.10227332539e-05)
(5.76704310819e-07 -9.07048626455e-08 -2.02420788052e-05)
(5.96388050311e-07 -7.15417235316e-08 -1.95743952395e-05)
(6.16675333074e-07 -4.94080285316e-08 -1.90379349266e-05)
(6.36864840629e-07 -2.90394277197e-08 -1.86400266578e-05)
(6.56011341539e-07 -1.38531080004e-08 -1.83810544035e-05)
(6.69676765101e-07 -3.53179313973e-09 -1.82547518582e-05)
(6.06263455529e-08 3.0338344972e-07 -2.53646976906e-05)
(1.71350935359e-07 2.93863214251e-07 -2.5145298261e-05)
(2.80239981776e-07 2.64802099241e-07 -2.47340210546e-05)
(3.79168079733e-07 2.23478220425e-07 -2.41569602808e-05)
(4.64775896757e-07 1.78099400182e-07 -2.34422242688e-05)
(5.3645657355e-07 1.35248469467e-07 -2.26320680375e-05)
(5.95231335532e-07 9.80497250084e-08 -2.17667155673e-05)
(6.42127339867e-07 6.93197332464e-08 -2.08905487643e-05)
(6.79551499789e-07 5.06057296899e-08 -2.00527090334e-05)
(7.11077324746e-07 4.1204363737e-08 -1.92947589816e-05)
(7.40095362722e-07 3.81267088131e-08 -1.86454848102e-05)
(7.6834255543e-07 3.67588523299e-08 -1.81217505711e-05)
(7.94236363054e-07 3.27856928005e-08 -1.77308615346e-05)
(8.17050996912e-07 2.34869384768e-08 -1.74745750197e-05)
(8.31181510182e-07 8.91371251462e-09 -1.73459592587e-05)
(7.37647880601e-08 6.11091834985e-07 -2.37955141487e-05)
(2.08543977919e-07 5.98422437814e-07 -2.35715420924e-05)
(3.41837197402e-07 5.61788548904e-07 -2.31678275515e-05)
(4.62261888406e-07 5.068439941e-07 -2.26071003847e-05)
(5.6677863406e-07 4.43790249339e-07 -2.19158783328e-05)
(6.54813909497e-07 3.80108282838e-07 -2.11364751488e-05)
(7.27639589393e-07 3.19922420721e-07 -2.03082484283e-05)
(7.8674823083e-07 2.66621602814e-07 -1.94730670732e-05)
(8.3481554916e-07 2.22017829121e-07 -1.86760297689e-05)
(8.7537152185e-07 1.85686030683e-07 -1.79544776303e-05)
(9.11633492925e-07 1.55142826626e-07 -1.73342598695e-05)
(9.45216600011e-07 1.26371413388e-07 -1.68313427744e-05)
(9.74306835631e-07 9.55525444567e-08 -1.64532935187e-05)
(9.9877687076e-07 6.07612255473e-08 -1.62027642826e-05)
(1.01171058239e-06 2.12721771449e-08 -1.60726537345e-05)
(8.98558343725e-08 9.45669405875e-07 -2.15743103766e-05)
(2.51773848165e-07 9.29360846409e-07 -2.13542625706e-05)
(4.1144401429e-07 8.82808920677e-07 -2.09647910039e-05)
(5.54846375136e-07 8.12704093061e-07 -2.0437606038e-05)
(6.79881049376e-07 7.2948494304e-07 -1.97915685259e-05)
(7.85183621908e-07 6.41877762741e-07 -1.90675799993e-05)
(8.72291772219e-07 5.55074132231e-07 -1.83017577542e-05)
(9.42984841114e-07 4.73219301615e-07 -1.75316936209e-05)
(1.00012417245e-06 3.98736167019e-07 -1.67973383933e-05)
(1.04726144607e-06 3.31921886968e-07 -1.61313365852e-05)
(1.08768901731e-06 2.71210834983e-07 -1.55564219458e-05)
(1.12319225167e-06 2.13532761569e-07 -1.50876637636e-05)
(1.15205917061e-06 1.55591030924e-07 -1.47329998148e-05)
(1.17531472307e-06 9.58347554176e-08 -1.44952569004e-05)
(1.18483265987e-06 3.28037243847e-08 -1.43673646395e-05)
(1.06513771508e-07 1.26479819053e-06 -1.85450092737e-05)
(2.95456900247e-07 1.24439042842e-06 -1.83374356931e-05)
(4.79973635541e-07 1.18533833529e-06 -1.79857517465e-05)
(6.45179458411e-07 1.09916518103e-06 -1.75103517444e-05)
(7.87812868238e-07 9.95476254418e-07 -1.69384845453e-05)
(9.07117571822e-07 8.8381685222e-07 -1.63011468264e-05)
(1.00473740366e-06 7.70387859868e-07 -1.56298211086e-05)
(1.08280633412e-06 6.60163327816e-07 -1.49561848072e-05)
(1.14441384797e-06 5.56350818983e-07 -1.4313585595e-05)
(1.19329140629e-06 4.60187293925e-07 -1.37293724987e-05)
(1.23310582929e-06 3.71116002085e-07 -1.32228834857e-05)
(1.26607540839e-06 2.87033292602e-07 -1.28074632964e-05)
(1.2907095277e-06 2.05212869696e-07 -1.24907621182e-05)
(1.30965049342e-06 1.24173057256e-07 -1.22756088652e-05)
(1.31396010583e-06 4.1992454556e-08 -1.21560984671e-05)
(1.18741653307e-07 1.48702868011e-06 -1.45463169039e-05)
(3.24066460202e-07 1.46261694137e-06 -1.43641542264e-05)
(5.24876276097e-07 1.39382032774e-06 -1.40646280313e-05)
(7.0159230542e-07 1.2944476705e-06 -1.36806119121e-05)
(8.52176448017e-07 1.17446140135e-06 -1.32177395989e-05)
(9.75921693025e-07 1.04408258723e-06 -1.27063952221e-05)
(1.0746585215e-06 9.10342162504e-07 -1.2169449322e-05)
(1.15107709557e-06 7.78880420359e-07 -1.16309718705e-05)
(1.20869353852e-06 6.53682955962e-07 -1.11166332458e-05)
(1.25163082625e-06 5.36820363878e-07 -1.06478154279e-05)
(1.28410563181e-06 4.28521399687e-07 -1.02401775458e-05)
(1.30891598487e-06 3.27380390556e-07 -9.90441413187e-06)
(1.32518581199e-06 2.310568551e-07 -9.64682850824e-06)
(1.33751854908e-06 1.38084267313e-07 -9.46989619787e-06)
(1.33702916869e-06 4.63455846202e-08 -9.37046865311e-06)
(1.14805151821e-07 1.4552939375e-06 -9.43742482289e-06)
(3.11503822182e-07 1.42020244082e-06 -9.30495542764e-06)
(4.99483143891e-07 1.34953339623e-06 -9.10227469696e-06)
(6.61203349306e-07 1.25041858667e-06 -8.83944006988e-06)
(7.9601913608e-07 1.1316492556e-06 -8.53255861182e-06)
(9.03042055988e-07 1.00282582086e-06 -8.19334205028e-06)
(9.85096777652e-07 8.70664969107e-07 -7.83804047792e-06)
(1.04494163943e-06 7.40794838998e-07 -7.48190008332e-06)
(1.08644229509e-06 6.17286563512e-07 -7.14103708167e-06)
(1.11385980592e-06 5.02521058817e-07 -6.82957813685e-06)
(1.13156103044e-06 3.97110487607e-07 -6.55837695206e-06)
(1.14272290048e-06 2.99969762962e-07 -6.33462855003e-06)
(1.14738404442e-06 2.0933396337e-07 -6.16238966607e-06)
(1.1518976952e-06 1.23453699979e-07 -6.04383000271e-06)
(1.14552196176e-06 4.09412812106e-08 -5.97727553564e-06)
(6.80026112282e-08 8.76497661552e-07 -3.25826535331e-06)
(1.80053018657e-07 8.45751614738e-07 -3.20890064445e-06)
(2.868242645e-07 7.96141763288e-07 -3.13222163523e-06)
(3.76806620675e-07 7.29879494373e-07 -3.04027928634e-06)
(4.482609563e-07 6.52650720632e-07 -2.92986667614e-06)
(5.01654507465e-07 5.7025264706e-07 -2.80889274459e-06)
(5.38440419777e-07 4.8730048046e-07 -2.68233671685e-06)
(5.61108219719e-07 4.07399177211e-07 -2.55550938798e-06)
(5.72646918343e-07 3.33183550648e-07 -2.43419498101e-06)
(5.76239757743e-07 2.66068782035e-07 -2.3235289546e-06)
(5.74996998815e-07 2.06266513889e-07 -2.22759009712e-06)
(5.71361961504e-07 1.52906404623e-07 -2.14890642746e-06)
(5.66157587887e-07 1.04986565396e-07 -2.08878080261e-06)
(5.6210317845e-07 6.10106991884e-08 -2.04888766249e-06)
(5.55916083307e-07 1.98629228704e-08 -2.02595213593e-06)
(4.53377708842e-09 -6.35839892618e-07 -2.76334411136e-05)
(1.08771773335e-08 -6.34908339632e-07 -2.74247156664e-05)
(1.60187883161e-08 -6.26324527217e-07 -2.70162037924e-05)
(2.00341179021e-08 -6.16419373955e-07 -2.64352766994e-05)
(2.02477797566e-08 -6.02089159806e-07 -2.571549067e-05)
(1.65719824816e-08 -5.81032844882e-07 -2.48935841694e-05)
(9.13756963097e-09 -5.52174098366e-07 -2.40062116083e-05)
(-2.04547190108e-09 -5.14663767726e-07 -2.3096568191e-05)
(-1.60345809774e-08 -4.67786493294e-07 -2.22157291162e-05)
(-3.0808154026e-08 -4.11180371397e-07 -2.1411261288e-05)
(-4.39936434857e-08 -3.455170729e-07 -2.07191379656e-05)
(-5.34810403337e-08 -2.72836187195e-07 -2.01620119481e-05)
(-5.86208645715e-08 -1.95760149837e-07 -1.97498992823e-05)
(-6.0334484043e-08 -1.18201057759e-07 -1.94834408872e-05)
(-5.65656741228e-08 -3.94314103433e-08 -1.93569973419e-05)
(4.89276776399e-09 -5.2336146881e-07 -2.72449160502e-05)
(1.47124322674e-08 -5.21191854459e-07 -2.70278912024e-05)
(2.68775548403e-08 -5.14002421354e-07 -2.66106126828e-05)
(3.55436005028e-08 -5.07927991819e-07 -2.60242976055e-05)
(4.01630617662e-08 -4.9742194526e-07 -2.52983219824e-05)
(4.0774529081e-08 -4.79981100352e-07 -2.44721561237e-05)
(3.79107892535e-08 -4.54550183817e-07 -2.3582445119e-05)
(3.19850029787e-08 -4.20377986447e-07 -2.26736482017e-05)
(2.44501085543e-08 -3.77129162836e-07 -2.17982048488e-05)
(1.76303947154e-08 -3.25276255449e-07 -2.10029362007e-05)
(1.39020316628e-08 -2.66629766622e-07 -2.03217257952e-05)
(1.48978032252e-08 -2.04459116758e-07 -1.97748786439e-05)
(1.98659556901e-08 -1.42451039626e-07 -1.93704874369e-05)
(2.61651667836e-08 -8.37545634251e-08 -1.91082306076e-05)
(3.32051594337e-08 -2.72444047944e-08 -1.89814489364e-05)
(1.05148319172e-08 -3.82934349039e-07 -2.65803932536e-05)
(2.96023587199e-08 -3.7649878524e-07 -2.63519396067e-05)
(4.84427203736e-08 -3.7312999122e-07 -2.59374483911e-05)
(6.38262702965e-08 -3.72190621623e-07 -2.53507483458e-05)
(7.457084456e-08 -3.68036037775e-07 -2.4624658865e-05)
(8.0924854866e-08 -3.57355456983e-07 -2.3799514846e-05)
(8.39239579952e-08 -3.38963429683e-07 -2.29140898619e-05)
(8.44150852318e-08 -3.12110001682e-07 -2.20138648159e-05)
(8.41783555545e-08 -2.76866079831e-07 -2.11506064275e-05)
(8.5452912497e-08 -2.34415942485e-07 -2.03689010546e-05)
(9.0198515891e-08 -1.87268010605e-07 -1.97001862011e-05)
(9.93210420456e-08 -1.39165106138e-07 -1.91629122635e-05)
(1.10972140204e-07 -9.39185084661e-08 -1.87643686453e-05)
(1.22504457749e-07 -5.37170813438e-08 -1.85047284647e-05)
(1.31503127776e-07 -1.71627808025e-08 -1.83760815434e-05)
(1.63307725482e-08 -1.93866750896e-07 -2.55111161468e-05)
(4.48947136632e-08 -1.92232521323e-07 -2.52898657968e-05)
(7.43557568647e-08 -1.94633388169e-07 -2.48774675592e-05)
(1.00194020229e-07 -2.00876787046e-07 -2.42990990466e-05)
(1.20613077434e-07 -2.05989537888e-07 -2.35827849267e-05)
(1.36151347816e-07 -2.05804101717e-07 -2.27706179305e-05)
(1.4790190635e-07 -1.98881710162e-07 -2.19029627232e-05)
(1.56934838097e-07 -1.84344499422e-07 -2.10247030168e-05)
(1.65098630915e-07 -1.62471167958e-07 -2.01851148112e-05)
(1.74408026105e-07 -1.34741635058e-07 -1.94254768611e-05)
(1.8644065829e-07 -1.03820695912e-07 -1.87745486378e-05)
(2.01619607162e-07 -7.33696222208e-08 -1.82494896341e-05)
(2.17175562018e-07 -4.67593931617e-08 -1.78575402508e-05)
(2.30699402113e-07 -2.51081409699e-08 -1.76000881167e-05)
(2.39940226382e-07 -7.63011277694e-09 -1.74692696908e-05)
(2.38195842443e-08 1.40771051688e-08 -2.39445245679e-05)
(6.70198816559e-08 1.18269118729e-08 -2.37194189998e-05)
(1.11688514751e-07 4.60943709057e-09 -2.33153768863e-05)
(1.51014561348e-07 -1.00703660976e-08 -2.27537522301e-05)
(1.83519508863e-07 -2.5941418079e-08 -2.20613715164e-05)
(2.09972753078e-07 -3.85248522429e-08 -2.1280134982e-05)
(2.31470141715e-07 -4.60065496264e-08 -2.0449555841e-05)
(2.4923836976e-07 -4.72828310125e-08 -1.96119276994e-05)
(2.65089787687e-07 -4.25377690195e-08 -1.8812461941e-05)
(2.80829767317e-07 -3.30661446666e-08 -1.80883406741e-05)
(2.9783825972e-07 -2.11775344254e-08 -1.74655662492e-05)
(3.16452443803e-07 -1.00330392048e-08 -1.69605109848e-05)
(3.33571657117e-07 -2.49851419469e-09 -1.65806507599e-05)
(3.47487649529e-07 1.34035334489e-09 -1.63282726127e-05)
(3.56215305619e-07 1.17817537957e-09 -1.61961690637e-05)
(3.33526738897e-08 2.35117713051e-07 -2.17187573947e-05)
(9.31537692934e-08 2.31162093428e-07 -2.14991227884e-05)
(1.54196824402e-07 2.18399646556e-07 -2.11094130345e-05)
(2.07954602212e-07 1.94441534487e-07 -2.05819083767e-05)
(2.53906738456e-07 1.66369542252e-07 -1.99349407426e-05)
(2.92120160687e-07 1.3894592017e-07 -1.92092670658e-05)
(3.23667243132e-07 1.14511709823e-07 -1.8441164077e-05)
(3.49764832019e-07 9.45594889343e-08 -1.76684964097e-05)
(3.72124836966e-07 7.93456790845e-08 -1.69312602612e-05)
(3.92442210452e-07 6.8171499361e-08 -1.6262062022e-05)
(4.12148304571e-07 5.93952798288e-08 -1.5684011773e-05)
(4.31701498177e-07 5.05589344879e-08 -1.5212631909e-05)
(4.47889710836e-07 3.92590959157e-08 -1.48556426885e-05)
(4.60445349234e-07 2.58720017375e-08 -1.46156324269e-05)
(4.67678021339e-07 9.28502735501e-09 -1.44861648438e-05)
(4.3845855989e-08 4.49213819324e-07 -1.86767545391e-05)
(1.21092521439e-07 4.42119597049e-07 -1.84686909059e-05)
(1.9700095357e-07 4.2155919673e-07 -1.81170376695e-05)
(2.6488580706e-07 3.87930597941e-07 -1.76415315692e-05)
(3.23007605278e-07 3.47360097151e-07 -1.70688274604e-05)
(3.71385095219e-07 3.04976454392e-07 -1.64299532502e-05)
(4.11087091802e-07 2.63509995309e-07 -1.57565061424e-05)
(4.43326536173e-07 2.24907533864e-07 -1.50803326688e-05)
(4.69725195016e-07 1.90002043047e-07 -1.44347518375e-05)
(4.91993495099e-07 1.58863085239e-07 -1.38471733445e-05)
(5.11864971423e-07 1.30581189915e-07 -1.3337488976e-05)
(5.30056536886e-07 1.0335189655e-07 -1.29194215245e-05)
(5.43179562747e-07 7.51491647893e-08 -1.26002702724e-05)
(5.53089971983e-07 4.63906819529e-08 -1.23828919216e-05)
(5.5813098207e-07 1.59258935389e-08 -1.22624402619e-05)
(5.13538283585e-08 6.03927733406e-07 -1.46510067254e-05)
(1.3947994534e-07 5.97378557028e-07 -1.4469290985e-05)
(2.27152758087e-07 5.70204118224e-07 -1.41701980501e-05)
(3.04147911064e-07 5.28756259246e-07 -1.37858670886e-05)
(3.69426573402e-07 4.78160130205e-07 -1.33223364989e-05)
(4.23081842045e-07 4.23786654842e-07 -1.28095707312e-05)
(4.65976975653e-07 3.68887353682e-07 -1.22707363383e-05)
(4.99575537598e-07 3.15779533653e-07 -1.1729932476e-05)
(5.25564777669e-07 2.65866068559e-07 -1.12127649743e-05)
(5.45829706398e-07 2.19866574327e-07 -1.07407352022e-05)
(5.62509565123e-07 1.77439803727e-07 -1.0330024517e-05)
(5.76627873364e-07 1.37262646265e-07 -9.99148937123e-06)
(5.84974330197e-07 9.74166626015e-08 -9.73130563178e-06)
(5.91956567739e-07 5.8350596765e-08 -9.55243777599e-06)
(5.95274944693e-07 1.95602396262e-08 -9.45196147136e-06)
(5.2212307072e-08 6.28999538267e-07 -9.49566567978e-06)
(1.4230098965e-07 6.15103940046e-07 -9.36228650082e-06)
(2.27512990207e-07 5.85895134809e-07 -9.1591356068e-06)
(3.00572951964e-07 5.43192192545e-07 -8.89610878631e-06)
(3.61285809425e-07 4.91434457859e-07 -8.58830685309e-06)
(4.09079414776e-07 4.35567289376e-07 -8.24793441088e-06)
(4.45803356972e-07 3.78550473406e-07 -7.89103739534e-06)
(4.72795627251e-07 3.22847722275e-07 -7.53286498059e-06)
(4.91876221097e-07 2.70067296726e-07 -7.18953888359e-06)
(5.04995564481e-07 2.21215435583e-07 -6.87531548106e-06)
(5.14380595209e-07 1.76312484158e-07 -6.60137965834e-06)
(5.21319789462e-07 1.34277512195e-07 -6.37497184401e-06)
(5.23357371242e-07 9.36948512525e-08 -6.2005274437e-06)
(5.27655666464e-07 5.5284776425e-08 -6.0802781454e-06)
(5.26882566079e-07 1.83311053676e-08 -6.01108698075e-06)
(3.03277906175e-08 3.85608187717e-07 -3.24178116941e-06)
(8.06158845942e-08 3.70557340317e-07 -3.19194837381e-06)
(1.28764366328e-07 3.48867548294e-07 -3.11576419376e-06)
(1.69404370231e-07 3.19338787348e-07 -3.02405103728e-06)
(2.01352959156e-07 2.84897195045e-07 -2.91416940082e-06)
(2.25090269026e-07 2.4836889745e-07 -2.79352942567e-06)
(2.41231478097e-07 2.11884185629e-07 -2.66709307971e-06)
(2.51043263516e-07 1.77013493193e-07 -2.54012846882e-06)
(2.55919426484e-07 1.44854892431e-07 -2.41839091965e-06)
(2.57324962261e-07 1.15991624778e-07 -2.30707295515e-06)
(2.5682019974e-07 9.03575606724e-08 -2.21035007112e-06)
(2.55516088675e-07 6.71459640475e-08 -2.1307856796e-06)
(2.52812932753e-07 4.60381852517e-08 -2.06997704479e-06)
(2.51761437948e-07 2.68159043109e-08 -2.02891494586e-06)
(2.48401906463e-07 8.72616930144e-09 -2.00574471577e-06)
(-3.15090153338e-08 -1.07018782494e-06 -2.78113098897e-05)
(-9.50028913927e-08 -1.05491893851e-06 -2.75997367273e-05)
(-1.57780642967e-07 -1.02610917815e-06 -2.71923144446e-05)
(-2.16965544904e-07 -9.89161414761e-07 -2.66115828399e-05)
(-2.74355549799e-07 -9.44098644221e-07 -2.58915185453e-05)
(-3.29248199964e-07 -8.89671410994e-07 -2.50692175311e-05)
(-3.81153106177e-07 -8.25838933569e-07 -2.41812132755e-05)
(-4.29770074945e-07 -7.52987761965e-07 -2.3270768253e-05)
(-4.74205690459e-07 -6.71629657886e-07 -2.23890415917e-05)
(-5.13271545786e-07 -5.82085544936e-07 -2.15832928622e-05)
(-5.45764699984e-07 -4.84929911575e-07 -2.08894645235e-05)
(-5.70341804729e-07 -3.81570221267e-07 -2.03306836276e-05)
(-5.864497045e-07 -2.73810131018e-07 -1.99172557323e-05)
(-5.95874370656e-07 -1.65015883632e-07 -1.96496771286e-05)
(-5.99069341661e-07 -5.49742598944e-08 -1.95216815061e-05)
(-3.30316152395e-08 -9.50860368906e-07 -2.74098968745e-05)
(-9.65356237545e-08 -9.37035410828e-07 -2.71983014678e-05)
(-1.54449870594e-07 -9.07612747362e-07 -2.67815521547e-05)
(-2.10095908277e-07 -8.73171320123e-07 -2.619499124e-05)
(-2.63650705613e-07 -8.30720720648e-07 -2.54683331912e-05)
(-3.14082941358e-07 -7.79032455243e-07 -2.4641269806e-05)
(-3.60717884547e-07 -7.18168275927e-07 -2.37505573631e-05)
(-4.02955142554e-07 -6.48695036852e-07 -2.28409346167e-05)
(-4.39594873319e-07 -5.71479391603e-07 -2.19648363544e-05)
(-4.69360778991e-07 -4.87518984417e-07 -2.11685962996e-05)
(-4.91146756725e-07 -3.98385023307e-07 -2.04860602362e-05)
(-5.0410911838e-07 -3.06697791307e-07 -1.99380091821e-05)
(-5.09100026568e-07 -2.15480493957e-07 -1.95327098737e-05)
(-5.09918260235e-07 -1.27382324826e-07 -1.92695299967e-05)
(-5.09453789958e-07 -4.16394504303e-08 -1.91410023802e-05)
(-3.07372745038e-08 -8.485564064e-07 -2.67515771007e-05)
(-8.90043262292e-08 -8.28579347839e-07 -2.65232400635e-05)
(-1.43064331748e-07 -7.99826710012e-07 -2.61077120344e-05)
(-1.95182548996e-07 -7.66981184046e-07 -2.55205277577e-05)
(-2.44935215321e-07 -7.26811517045e-07 -2.47932942853e-05)
(-2.91245940285e-07 -6.7782138872e-07 -2.39668370868e-05)
(-3.32994865672e-07 -6.20171551269e-07 -2.30801291519e-05)
(-3.69249282984e-07 -5.54617033154e-07 -2.2178970543e-05)
(-3.98693021817e-07 -4.82511677653e-07 -2.13150206961e-05)
(-4.20328297953e-07 -4.05506656547e-07 -2.05323406802e-05)
(-4.33557657579e-07 -3.2579337509e-07 -1.98623617256e-05)
(-4.38327386175e-07 -2.46390161405e-07 -1.93239768106e-05)
(-4.3667787894e-07 -1.70312220135e-07 -1.89245502379e-05)
(-4.32791399554e-07 -9.94434434512e-08 -1.8663709639e-05)
(-4.30189427383e-07 -3.22993851842e-08 -1.85337375802e-05)
(-2.80990007113e-08 -7.29291203523e-07 -2.56833410779e-05)
(-8.28449524322e-08 -7.12293477427e-07 -2.5460415031e-05)
(-1.33095053153e-07 -6.86378500618e-07 -2.50477056905e-05)
(-1.80366272828e-07 -6.55936430503e-07 -2.44687936603e-05)
(-2.25002327221e-07 -6.19041015091e-07 -2.37516716076e-05)
(-2.65518290604e-07 -5.74002001201e-07 -2.29384980295e-05)
(-3.00825216496e-07 -5.21177085758e-07 -2.20697703553e-05)
(-3.29992935858e-07 -4.61549260514e-07 -2.11906478937e-05)
(-3.51947428061e-07 -3.9687698119e-07 -2.03502605443e-05)
(-3.66172177473e-07 -3.29156884828e-07 -1.95894329594e-05)
(-3.72613696707e-07 -2.60749768905e-07 -1.89370339166e-05)
(-3.71809787204e-07 -1.94532360474e-07 -1.84106575338e-05)
(-3.66846793306e-07 -1.32853117901e-07 -1.80174875385e-05)
(-3.62020748412e-07 -7.6722386853e-08 -1.77582980278e-05)
(-3.59647558597e-07 -2.48105629761e-08 -1.7626816768e-05)