/*--------------------------------*- C++ -*----------------------------------*\
| =========                 |                                                 |
| \\      /  F ield         | foam-extend: Open Source CFD                    |
|  \\    /   O peration     | Version:     4.1                                |
|   \\  /    A nd           | Web:         http://www.foam-extend.org         |
|    \\/     M anipulation  |                                                 |
\*---------------------------------------------------------------------------*/
FoamFile
{
    version     2.0;
    format      ascii;
    class       vectorField;
    location    "1";
    object      solidsCellD_iteration7;
}
// * * * * * * * * * * * * * * * * * * * * * * * * * * * * * * * * * * * * * //


1050
(
(9.13178521317e-08 1.87791933119e-07 -3.01299184658e-05)
(2.61330357523e-07 1.73375215364e-07 -2.98966134482e-05)
(4.26498783149e-07 1.37321434674e-07 -2.94431127733e-05)
(5.77502991219e-07 8.69217565315e-08 -2.87994059996e-05)
(7.11613911765e-07 3.01356725804e-08 -2.80002750577e-05)
(8.2615108146e-07 -2.70767950614e-08 -2.70840169246e-05)
(9.19344913099e-07 -7.97800667546e-08 -2.60918060965e-05)
(9.89084340274e-07 -1.22401798689e-07 -2.50747659227e-05)
(1.0356757911e-06 -1.49504542114e-07 -2.40917554282e-05)
(1.06350519244e-06 -1.57793216766e-07 -2.31960619564e-05)
(1.0791823129e-06 -1.47579336591e-07 -2.24265812819e-05)
(1.08893622494e-06 -1.22747949604e-07 -2.18069717352e-05)
(1.09655025499e-06 -8.90791083861e-08 -2.13480569678e-05)
(1.10310226916e-06 -5.26954859753e-08 -2.10507270097e-05)
(1.10642562262e-06 -1.72119428601e-08 -2.09081772923e-05)
(9.79420850624e-08 3.67573053854e-07 -2.96682658639e-05)
(2.78371368184e-07 3.46965916292e-07 -2.94295589252e-05)
(4.53722510405e-07 3.01308945401e-07 -2.89680200506e-05)
(6.13275171917e-07 2.39572841751e-07 -2.83198121041e-05)
(7.5440699269e-07 1.7136780489e-07 -2.75171870788e-05)
(8.7445911251e-07 1.03681229124e-07 -2.65994395341e-05)
(9.72508346708e-07 4.17944165832e-08 -2.56072402167e-05)
(1.04733970119e-06 -8.10704165302e-09 -2.45935762837e-05)
(1.10061159067e-06 -4.07948622264e-08 -2.36190745896e-05)
(1.13786402171e-06 -5.44762132127e-08 -2.27360169355e-05)
(1.16604575907e-06 -5.17135495179e-08 -2.19804272645e-05)
(1.19057814732e-06 -3.85983301749e-08 -2.1373098206e-05)
(1.21314686957e-06 -2.23582701188e-08 -2.09229901411e-05)
(1.23217259865e-06 -9.14692348966e-09 -2.06304260128e-05)
(1.24253219802e-06 -1.32351399314e-09 -2.04897833322e-05)
(1.11635005294e-07 6.58303949092e-07 -2.88835786801e-05)
(3.13324450744e-07 6.33522922518e-07 -2.86299012661e-05)
(5.08717767179e-07 5.78604032971e-07 -2.81689303729e-05)
(6.87569261664e-07 5.04135656395e-07 -2.75189193429e-05)
(8.45034927814e-07 4.20929937327e-07 -2.67168320543e-05)
(9.79078625132e-07 3.3708535735e-07 -2.58019495517e-05)
(1.08929354779e-06 2.58294053146e-07 -2.48169160991e-05)
(1.17552256946e-06 1.91147194307e-07 -2.38158488508e-05)
(1.24073784291e-06 1.40659299622e-07 -2.28583813009e-05)
(1.29121293653e-06 1.07589216166e-07 -2.19937964763e-05)
(1.33364345815e-06 8.81639784485e-08 -2.12548136577e-05)
(1.37232128068e-06 7.5480296796e-08 -2.06598812916e-05)
(1.40733999341e-06 6.23783403145e-08 -2.02169902e-05)
(1.43637563122e-06 4.30729098399e-08 -1.9927226508e-05)
(1.45147090551e-06 1.66674172519e-08 -1.97846890559e-05)
(1.27400687785e-07 1.06231323269e-06 -2.76552019959e-05)
(3.57384852693e-07 1.03325497798e-06 -2.7411595126e-05)
(5.84283984478e-07 9.67741940766e-07 -2.69512567719e-05)
(7.91117652711e-07 8.75995631605e-07 -2.63097489383e-05)
(9.73659630307e-07 7.70546266086e-07 -2.55188739772e-05)
(1.12917403411e-06 6.61248919595e-07 -2.46198030124e-05)
(1.25790073424e-06 5.54908407368e-07 -2.3656370393e-05)
(1.36079548818e-06 4.58770001931e-07 -2.26819110396e-05)
(1.44183540287e-06 3.77843671479e-07 -2.17531884336e-05)
(1.50759114607e-06 3.1245443e-07 -2.09156423336e-05)
(1.56431770709e-06 2.58582640804e-07 -2.0198736849e-05)
(1.61541812364e-06 2.09498147981e-07 -1.96191570528e-05)
(1.65988090946e-06 1.58820357974e-07 -1.91845022689e-05)
(1.69540774045e-06 1.01228807942e-07 -1.88969549375e-05)
(1.7138055939e-06 3.64039205757e-08 -1.87511688111e-05)
(1.50730237142e-07 1.54074255016e-06 -2.58989019314e-05)
(4.20019706106e-07 1.5075244877e-06 -2.56493300547e-05)
(6.86332470819e-07 1.42906560722e-06 -2.51954657838e-05)
(9.28138541018e-07 1.31610060165e-06 -2.45711608738e-05)
(1.14091324059e-06 1.18296620859e-06 -2.38064301738e-05)
(1.32181436158e-06 1.04137214817e-06 -2.29423010283e-05)
(1.47193868359e-06 8.99640009377e-07 -2.20214294429e-05)
(1.59329179408e-06 7.65762062563e-07 -2.10940462637e-05)
(1.69052507625e-06 6.45014191418e-07 -2.02121081e-05)
(1.770217867e-06 5.38005751217e-07 -1.94163404686e-05)
(1.83826762781e-06 4.41449952223e-07 -1.87329879045e-05)
(1.89779659627e-06 3.49631566217e-07 -1.81775348385e-05)
(1.94765483477e-06 2.57164123859e-07 -1.77578848206e-05)
(1.98622274244e-06 1.59428976549e-07 -1.7477039542e-05)
(2.00520508453e-06 5.59871258789e-08 -1.73302606274e-05)
(1.78301667642e-07 2.06241129841e-06 -2.34306947152e-05)
(4.92097437605e-07 2.02158340694e-06 -2.31863992099e-05)
(8.02325870819e-07 1.9259463446e-06 -2.27499420556e-05)
(1.08211349342e-06 1.78822789743e-06 -2.21630497699e-05)
(1.32738358788e-06 1.62257226352e-06 -2.14497638849e-05)
(1.53487646267e-06 1.44341089347e-06 -2.06489445639e-05)
(1.70653605418e-06 1.26053420693e-06 -1.97997850901e-05)
(1.84517695772e-06 1.0828899148e-06 -1.89472343064e-05)
(1.95594477531e-06 9.16446292061e-07 -1.81369089515e-05)
(2.04545615333e-06 7.62737615716e-07 -1.74042980393e-05)
(2.11962528718e-06 6.19848261747e-07 -1.67725559687e-05)
(2.1819332661e-06 4.83546767626e-07 -1.62560828178e-05)
(2.23180752116e-06 3.49367733316e-07 -1.58632232685e-05)
(2.26894559285e-06 2.13064148183e-07 -1.5597443536e-05)
(2.28549923786e-06 7.38805899302e-08 -1.54541772753e-05)
(2.06628183088e-07 2.55815637494e-06 -2.00941959671e-05)
(5.64507477382e-07 2.50983428085e-06 -1.9861257568e-05)
(9.17682734705e-07 2.39400394906e-06 -1.94690356994e-05)
(1.2330395594e-06 2.22871051137e-06 -1.89430939016e-05)
(1.50619473619e-06 2.02931403235e-06 -1.83137387033e-05)
(1.73523251001e-06 1.81148586952e-06 -1.76112489302e-05)
(1.92255681555e-06 1.586764705e-06 -1.68698068837e-05)
(2.0718492889e-06 1.36514306436e-06 -1.61271170965e-05)
(2.18879455418e-06 1.15358283712e-06 -1.54207831716e-05)
(2.28029333079e-06 9.54915398712e-07 -1.47803366811e-05)
(2.35276227781e-06 7.68763299033e-07 -1.42259006556e-05)
(2.41059506774e-06 5.92417424192e-07 -1.37705304217e-05)
(2.45418235843e-06 4.22343692633e-07 -1.34221774231e-05)
(2.48484995267e-06 2.54462936334e-07 -1.31840185755e-05)
(2.49580600814e-06 8.75256039661e-08 -1.30515189141e-05)
(2.29041360219e-07 2.90941590999e-06 -1.57200070916e-05)
(6.15613655098e-07 2.84939650807e-06 -1.55236456204e-05)
(9.95818836744e-07 2.71626623472e-06 -1.51888073817e-05)
(1.33026696897e-06 2.52731733434e-06 -1.47652191376e-05)
(1.61623675497e-06 2.2998961751e-06 -1.42584493836e-05)
(1.85186118163e-06 2.05128108325e-06 -1.36977993787e-05)
(2.04046728504e-06 1.79405183742e-06 -1.31086117048e-05)
(2.18659393175e-06 1.5390858748e-06 -1.25194958995e-05)
(2.2966796954e-06 1.2943658032e-06 -1.19586274459e-05)
(2.37821504108e-06 1.06395300096e-06 -1.1448569148e-05)
(2.43845196171e-06 8.48710621468e-07 -1.1005976179e-05)
(2.48292853121e-06 6.4704247583e-07 -1.06420036052e-05)
(2.51331123802e-06 4.5619615384e-07 -1.03630155085e-05)
(2.53269418073e-06 2.72240469317e-07 -1.01705674115e-05)
(2.5364784483e-06 9.32024614138e-08 -1.00601068915e-05)
(2.22405735991e-07 2.83437300554e-06 -1.0207465527e-05)
(5.90799096834e-07 2.76326428858e-06 -1.00585092283e-05)
(9.49611659669e-07 2.62563929819e-06 -9.83888405112e-06)
(1.25933255668e-06 2.4359632772e-06 -9.55218183942e-06)
(1.51875888972e-06 2.20959166112e-06 -9.21868758691e-06)
(1.72703044466e-06 1.96309551991e-06 -8.84968600852e-06)
(1.8881508206e-06 1.70885338408e-06 -8.46333239869e-06)
(2.0070677377e-06 1.45745185091e-06 -8.07775658637e-06)
(2.09071643097e-06 1.21686592702e-06 -7.71039058412e-06)
(2.14682153432e-06 9.9169122397e-07 -7.37558226015e-06)
(2.18300306509e-06 7.8343021996e-07 -7.08489780639e-06)
(2.20544729678e-06 5.91024742231e-07 -6.8461871914e-06)
(2.21691329982e-06 4.12502472181e-07 -6.66297122568e-06)
(2.22209183285e-06 2.43726872862e-07 -6.53545012484e-06)
(2.21819292114e-06 8.3076790862e-08 -6.45889214447e-06)
(1.476126491e-07 1.86202660536e-06 -3.68912710182e-06)
(3.82638902782e-07 1.80239114776e-06 -3.63631553859e-06)
(6.09818353333e-07 1.70088022085e-06 -3.54994412347e-06)
(8.02585163335e-07 1.56571740982e-06 -3.4478272695e-06)
(9.58446409079e-07 1.40765607736e-06 -3.32583904245e-06)
(1.07776094569e-06 1.23772183825e-06 -3.19221023318e-06)
(1.16342829866e-06 1.06483193118e-06 -3.05272278104e-06)
(1.21988513882e-06 8.96312360852e-07 -2.91395704143e-06)
(1.25276586861e-06 7.37699772939e-07 -2.78206354037e-06)
(1.26821197175e-06 5.92153063177e-07 -2.66210044932e-06)
(1.27212874211e-06 4.60630707764e-07 -2.55850917491e-06)
(1.2694558637e-06 3.42277222504e-07 -2.47415834521e-06)
(1.26308865077e-06 2.35707374575e-07 -2.40957953641e-06)
(1.25616441948e-06 1.37656933898e-07 -2.36520358473e-06)
(1.25070159372e-06 4.6810711097e-08 -2.33759580492e-06)
(5.24767034634e-08 -1.56693728628e-07 -3.02491740819e-05)
(1.50665366129e-07 -1.60635419698e-07 -3.0014536625e-05)
(2.45514103763e-07 -1.73858389182e-07 -2.9562317601e-05)
(3.32575940897e-07 -1.93908949605e-07 -2.8920413156e-05)
(4.09463472671e-07 -2.15367497976e-07 -2.8123436835e-05)
(4.74404119045e-07 -2.34172236825e-07 -2.72083290267e-05)
(5.26096304862e-07 -2.47285403359e-07 -2.62153836929e-05)
(5.63501324556e-07 -2.51782823733e-07 -2.51963776374e-05)
(5.8766249761e-07 -2.4511567594e-07 -2.42113375578e-05)
(6.0217632451e-07 -2.25953729405e-07 -2.33139121489e-05)
(6.11607964791e-07 -1.9502975491e-07 -2.2542788952e-05)
(6.19836211063e-07 -1.5531655918e-07 -2.19216794296e-05)
(6.28584569974e-07 -1.10832465784e-07 -2.14617038425e-05)
(6.3812203684e-07 -6.61754741808e-08 -2.11641251991e-05)
(6.48484315888e-07 -2.18460881545e-08 -2.10221538394e-05)
(5.58350306727e-08 -2.76419683168e-08 -2.97848433072e-05)
(1.60919258736e-07 -3.27741470664e-08 -2.95486682371e-05)
(2.64150389902e-07 -5.08540167937e-08 -2.90879624555e-05)
(3.5746152489e-07 -7.75136207251e-08 -2.84404796827e-05)
(4.39751333925e-07 -1.05690753429e-07 -2.76377576569e-05)
(5.09148215389e-07 -1.3077864896e-07 -2.67186781355e-05)
(5.65030835194e-07 -1.4952820031e-07 -2.57236356052e-05)
(6.07004449965e-07 -1.58761138628e-07 -2.47064128698e-05)
(6.36920553684e-07 -1.56221827895e-07 -2.37286101729e-05)
(6.58897575599e-07 -1.4166319493e-07 -2.28427926829e-05)
(6.77537888357e-07 -1.17328969265e-07 -2.20848547993e-05)
(6.96104153604e-07 -8.76400242238e-08 -2.14757251026e-05)
(7.14773160036e-07 -5.76298650459e-08 -2.10244713093e-05)
(7.32391835157e-07 -3.14996707751e-08 -2.07316755464e-05)
(7.46787499697e-07 -9.41282929523e-09 -2.05913314495e-05)
(6.55357640946e-08 1.76848399119e-07 -2.90203522305e-05)
(1.85213806962e-07 1.71102912795e-07 -2.8766905009e-05)
(3.00542326963e-07 1.45814865537e-07 -2.83071628716e-05)
(4.05905806222e-07 1.0969858666e-07 -2.76572543376e-05)
(4.98207254411e-07 7.02133464984e-08 -2.685416412e-05)
(5.76206128662e-07 3.31131238852e-08 -2.59370352233e-05)
(6.39917939228e-07 2.0794182297e-09 -2.49483399259e-05)
(6.89696125617e-07 -1.93720447173e-08 -2.39429214897e-05)
(7.28087300438e-07 -2.92732729452e-08 -2.29813213882e-05)
(7.59368711546e-07 -2.82502787754e-08 -2.21132196137e-05)
(7.87744657493e-07 -1.94641592798e-08 -2.13713500042e-05)
(8.15633287512e-07 -7.91620681921e-09 -2.07743559527e-05)
(8.42028808766e-07 1.3585305787e-09 -2.03302216518e-05)
(8.65844179115e-07 4.85539835171e-09 -2.00401056127e-05)
(8.81912230721e-07 2.82349216224e-09 -1.98975705378e-05)
(7.60789402653e-08 4.6676554908e-07 -2.78049924398e-05)
(2.14043671072e-07 4.55529402299e-07 -2.75607213795e-05)
(3.49932736726e-07 4.21384001604e-07 -2.71023066264e-05)
(4.73719722866e-07 3.71969616158e-07 -2.64606830024e-05)
(5.8231567048e-07 3.15744851019e-07 -2.5668911856e-05)
(6.74520949204e-07 2.59816252276e-07 -2.47676201503e-05)
(7.50710246734e-07 2.08615576442e-07 -2.38006486886e-05)
(8.11884330073e-07 1.66187937224e-07 -2.28219504803e-05)
(8.61070322694e-07 1.34499985757e-07 -2.18890364937e-05)
(9.0255040865e-07 1.12621301794e-07 -2.10477365169e-05)
(9.40161007746e-07 9.72134111111e-08 -2.03275825196e-05)
(9.75765934345e-07 8.33815066538e-08 -1.97455450543e-05)
(1.0075046907e-06 6.65699815237e-08 -1.93094463155e-05)
(1.03471132952e-06 4.40382338112e-08 -1.90214956141e-05)
(1.05105647264e-06 1.58232723533e-08 -1.88754390235e-05)
(9.11497887268e-08 8.072831355e-07 -2.60541532527e-05)
(2.55705460144e-07 7.91966262413e-07 -2.58051787263e-05)
(4.1836870399e-07 7.4796391858e-07 -2.53526597913e-05)
(5.65494159741e-07 6.82428261821e-07 -2.47284000237e-05)
(6.94249869002e-07 6.05860779139e-07 -2.39629848194e-05)
(8.03522908126e-07 5.2635959394e-07 -2.30967811656e-05)
(8.94136687787e-07 4.49357350303e-07 -2.21725744347e-05)
(9.67700422913e-07 3.79525291069e-07 -2.12410593178e-05)
(1.02755084588e-06 3.19164580118e-07 -2.03547665272e-05)
(1.07788400743e-06 2.67663069947e-07 -1.95547992337e-05)
(1.12231365807e-06 2.22226936989e-07 -1.88675302128e-05)
(1.16262176188e-06 1.78666768363e-07 -1.83087769788e-05)
(1.19683001726e-06 1.32994124916e-07 -1.78869256105e-05)
(1.22512123198e-06 8.32578486187e-08 -1.76051637747e-05)
(1.23990506553e-06 2.87609084911e-08 -1.74575352974e-05)
(1.09220094939e-07 1.1771884931e-06 -2.35813359445e-05)
(3.03619053037e-07 1.15698421223e-06 -2.33391457297e-05)
(4.95391321169e-07 1.10049710199e-06 -2.29023009259e-05)
(6.67574187582e-07 1.01689681559e-06 -2.23153835045e-05)
(8.18108150389e-07 9.16995920595e-07 -2.1600955188e-05)
(9.4524147081e-07 8.10413524637e-07 -2.07977212526e-05)
(1.05029603377e-06 7.03581225186e-07 -1.99450404708e-05)
(1.1353005118e-06 6.01943868087e-07 -1.90881521106e-05)
(1.20379673198e-06 5.08527471417e-07 -1.82730451572e-05)
(1.25997246729e-06 4.2358427779e-07 -1.75355474108e-05)
(1.30754084623e-06 3.45332195119e-07 -1.68991211643e-05)
(1.34861441788e-06 2.70592640121e-07 -1.63786187035e-05)
(1.38151548152e-06 1.95950990307e-07 -1.59829166218e-05)
(1.40778240612e-06 1.19795968031e-07 -1.57156818004e-05)
(1.41868326322e-06 4.07176844769e-08 -1.55711416497e-05)
(1.2767544344e-07 1.52412261233e-06 -2.02235237447e-05)
(3.51047101277e-07 1.49857176717e-06 -1.99877078754e-05)
(5.69700492883e-07 1.42779530115e-06 -1.95968904911e-05)
(7.64952617433e-07 1.32537736602e-06 -1.90705018793e-05)
(9.33625326697e-07 1.20213644345e-06 -1.84398172147e-05)
(1.07466498124e-06 1.06863074758e-06 -1.77347009875e-05)
(1.18969819869e-06 9.32317223765e-07 -1.69896200863e-05)
(1.28122145558e-06 7.99445265909e-07 -1.62424438359e-05)
(1.35301639663e-06 6.73950453904e-07 -1.55309630206e-05)
(1.40946459366e-06 5.57230897623e-07 -1.48850114015e-05)
(1.45476841191e-06 4.48641570707e-07 -1.43253010273e-05)
(1.49170781972e-06 3.45972288724e-07 -1.38655769367e-05)
(1.51900644317e-06 2.46382970867e-07 -1.3514231503e-05)
(1.5399139578e-06 1.48310520912e-07 -1.32743123657e-05)
(1.54492206652e-06 4.990194001e-08 -1.31402523167e-05)
(1.40280636155e-07 1.75574033533e-06 -1.57972153657e-05)
(3.79990090283e-07 1.72429200542e-06 -1.56008202162e-05)
(6.14814361072e-07 1.6421729875e-06 -1.52658449545e-05)
(8.2077233971e-07 1.52470850533e-06 -1.48416375732e-05)
(9.96077007746e-07 1.38344051024e-06 -1.43331020888e-05)
(1.13980970226e-06 1.22974209318e-06 -1.37697166786e-05)
(1.25402182615e-06 1.07183415447e-06 -1.31769005899e-05)
(1.34184045185e-06 9.16546552174e-07 -1.25832878639e-05)
(1.40747622955e-06 7.68646184351e-07 -1.20171009987e-05)
(1.45574540559e-06 6.3051929878e-07 -1.15011628011e-05)
(1.49154032429e-06 5.02408762703e-07 -1.10528405141e-05)
(1.51837324487e-06 3.82794385733e-07 -1.06839605953e-05)
(1.53561342111e-06 2.69266642804e-07 -1.04011405915e-05)
(1.54841376296e-06 1.60239684604e-07 -1.02056615018e-05)
(1.54752459707e-06 5.35572673619e-08 -1.00929304868e-05)
(1.33529190228e-07 1.68531283592e-06 -1.01950137821e-05)
(3.58835225101e-07 1.64425597638e-06 -1.00443445546e-05)
(5.75250713862e-07 1.56073519329e-06 -9.82459061984e-06)
(7.61134181042e-07 1.44490778016e-06 -9.53694315711e-06)
(9.15691993448e-07 1.30680033162e-06 -9.20188422604e-06)
(1.03817286199e-06 1.15718317404e-06 -8.83056479403e-06)
(1.13161520506e-06 1.00376163182e-06 -8.44102956245e-06)
(1.19926090731e-06 8.53133524334e-07 -8.05137770213e-06)
(1.2456164343e-06 7.10036092811e-07 -7.67906219654e-06)
(1.27561938927e-06 5.77172530499e-07 -7.3386934961e-06)
(1.29432050604e-06 4.55203601179e-07 -7.04243975492e-06)
(1.30554120918e-06 3.42940313296e-07 -6.79851742509e-06)
(1.30949209215e-06 2.38658730001e-07 -6.61066680922e-06)
(1.31300812457e-06 1.40337319118e-07 -6.47924961865e-06)
(1.30554106505e-06 4.64231442176e-08 -6.40166096213e-06)
(7.6846687614e-08 9.87353885781e-07 -3.4997401831e-06)
(2.03076052961e-07 9.5271173584e-07 -3.44734850539e-06)
(3.23099893793e-07 8.96017665517e-07 -3.36288055753e-06)
(4.23968946591e-07 8.20677481114e-07 -3.26253032149e-06)
(5.03929885399e-07 7.33236607602e-07 -3.14286684283e-06)
(5.63447852215e-07 6.40138409453e-07 -3.01136081094e-06)
(6.04237223059e-07 5.46497346989e-07 -2.87359863494e-06)
(6.29105713875e-07 4.56415668202e-07 -2.73596546993e-06)
(6.41440031905e-07 3.72846817496e-07 -2.60448608923e-06)
(6.44845620455e-07 2.97349735541e-07 -2.48428299916e-06)
(6.42822595228e-07 2.30145365598e-07 -2.37999030155e-06)
(6.38134480157e-07 1.70250175794e-07 -2.2944912626e-06)
(6.31665520693e-07 1.16695156575e-07 -2.22853662426e-06)
(6.26406685967e-07 6.76925684557e-08 -2.18326261593e-06)
(6.19588340737e-07 2.19426152696e-08 -2.15547533862e-06)
(1.01230411199e-08 -5.94557417616e-07 -3.04046423363e-05)
(2.69488563775e-08 -5.92963775643e-07 -3.01671548116e-05)
(4.22537797823e-08 -5.84436894955e-07 -2.97166043087e-05)
(5.59521093895e-08 -5.75516132446e-07 -2.90752340302e-05)
(6.58130708501e-08 -5.63427270288e-07 -2.82783798477e-05)
(7.13985647017e-08 -5.45468982064e-07 -2.73629072513e-05)
(7.23485302706e-08 -5.2012779316e-07 -2.63691701079e-05)
(6.85090007164e-08 -4.86227068405e-07 -2.53493752098e-05)
(6.10180262747e-08 -4.42897578679e-07 -2.4363662485e-05)
(5.21844231621e-08 -3.89734387954e-07 -2.34653201162e-05)
(4.45662092459e-08 -3.27386376467e-07 -2.26927888095e-05)
(4.02738712695e-08 -2.5803112485e-07 -2.20701154438e-05)
(3.961858314e-08 -1.84534817922e-07 -2.16087678054e-05)
(4.12722377139e-08 -1.11103330603e-07 -2.13101951537e-05)
(4.67102980299e-08 -3.71233067535e-08 -2.11671563808e-05)
(1.08102032544e-08 -4.78180056498e-07 -2.9923981825e-05)
(3.12203674575e-08 -4.76197218163e-07 -2.96903851942e-05)
(5.36120312316e-08 -4.68951870434e-07 -2.92304114207e-05)
(7.21870938e-08 -4.63747587662e-07 -2.8582434853e-05)
(8.66163914863e-08 -4.55420883028e-07 -2.77788642003e-05)
(9.65413040109e-08 -4.41105432654e-07 -2.68583223104e-05)
(1.02016064752e-07 -4.19218093401e-07 -2.58615849759e-05)
(1.03366028107e-07 -3.88619030433e-07 -2.48429667554e-05)
(1.0229541969e-07 -3.48860493668e-07 -2.38641248562e-05)
(1.01431177097e-07 -3.00458880812e-07 -2.29771864544e-05)
(1.03327178783e-07 -2.45300410349e-07 -2.22177848327e-05)
(1.09594303219e-07 -1.86819495136e-07 -2.16072081223e-05)
(1.19070885626e-07 -1.28995833441e-07 -2.11547761441e-05)
(1.28732509877e-07 -7.520325992e-08 -2.08611451982e-05)
(1.37488086225e-07 -2.42814756609e-08 -2.0718932335e-05)
(1.66819870716e-08 -3.30088686706e-07 -2.916615668e-05)
(4.65469533224e-08 -3.23722281127e-07 -2.89142708573e-05)
(7.61268193466e-08 -3.20597067493e-07 -2.84532263297e-05)
(1.01860319235e-07 -3.2088343662e-07 -2.78022203859e-05)
(1.22694024366e-07 -3.19248113872e-07 -2.69973788999e-05)
(1.38505373219e-07 -3.12128502507e-07 -2.60777705972e-05)
(1.49888761129e-07 -2.9776420147e-07 -2.50863675394e-05)
(1.57679780292e-07 -2.74957539326e-07 -2.40785868627e-05)
(1.63939343666e-07 -2.4369238677e-07 -2.311509581e-05)
(1.71182093825e-07 -2.05276178808e-07 -2.22452633755e-05)
(1.81491181668e-07 -1.62351947598e-07 -2.15016275986e-05)
(1.95703853649e-07 -1.18788867828e-07 -2.0903127036e-05)
(2.11544327938e-07 -7.86038062921e-08 -2.045787733e-05)
(2.26114406767e-07 -4.41144217385e-08 -2.01669573464e-05)
(2.36661910446e-07 -1.38686896705e-08 -2.00224649443e-05)
(2.29337342061e-08 -1.2770384128e-07 -2.79609188399e-05)
(6.31410997486e-08 -1.26279012814e-07 -2.77144666417e-05)
(1.04343834808e-07 -1.29493741638e-07 -2.72548701933e-05)
(1.41182343098e-07 -1.37913490887e-07 -2.66120588062e-05)
(1.72135566406e-07 -1.46472706789e-07 -2.58186000766e-05)
(1.97369921872e-07 -1.5082220179e-07 -2.4914818257e-05)
(2.17628728628e-07 -1.48932451654e-07 -2.39449745734e-05)
(2.34038888294e-07 -1.39454945721e-07 -2.29635161489e-05)
(2.48742242712e-07 -1.22598297049e-07 -2.20280928444e-05)
(2.63991257503e-07 -1.00007158075e-07 -2.11843567512e-05)
(2.81433156082e-07 -7.4490103215e-08 -2.04617748129e-05)
(3.01408437834e-07 -4.97649745071e-08 -1.98776398872e-05)
(3.20778924297e-07 -2.93451342749e-08 -1.94398862956e-05)
(3.37090970645e-07 -1.44018578979e-08 -1.91505879996e-05)
(3.47774125162e-07 -4.03080555439e-09 -1.9002137258e-05)
(3.13632660459e-08 9.75569585304e-08 -2.62112185351e-05)
(8.73574901432e-08 9.47963162373e-08 -2.59596837995e-05)
(1.44787540161e-07 8.55302914323e-08 -2.55070745989e-05)
(1.95975513367e-07 6.73496501881e-08 -2.48820366988e-05)
(2.39610780606e-07 4.66642540476e-08 -2.41152869588e-05)
(2.76069979873e-07 2.81529222046e-08 -2.32468225906e-05)
(3.06225462589e-07 1.42130136177e-08 -2.23198114982e-05)
(3.3142829948e-07 6.42714698183e-09 -2.13853224158e-05)
(3.5378011776e-07 4.69241200552e-09 -2.04959931074e-05)
(3.75277262759e-07 7.56131754943e-09 -1.96928698055e-05)
(3.97336790142e-07 1.26121261451e-08 -1.90024410718e-05)
(4.202467997e-07 1.67066135014e-08 -1.8440929913e-05)
(4.40619530174e-07 1.68797754531e-08 -1.80168474074e-05)
(4.56913522234e-07 1.3018082689e-08 -1.77333611693e-05)
(4.66845352677e-07 5.02353765353e-09 -1.75835457438e-05)
(4.17846061094e-08 3.37478790816e-07 -2.37316828393e-05)
(1.15604815937e-07 3.32016645449e-07 -2.34897261623e-05)
(1.90657970535e-07 3.15502235377e-07 -2.3052473127e-05)
(2.57298376797e-07 2.86423524169e-07 -2.24648585211e-05)
(3.14937058767e-07 2.51794809167e-07 -2.17489497057e-05)
(3.63350528352e-07 2.16754649149e-07 -2.09433909848e-05)
(4.03539732796e-07 1.84183000697e-07 -2.00878529726e-05)
(4.36905196776e-07 1.56050813837e-07 -1.92277955553e-05)
(4.65435194226e-07 1.3273610894e-07 -1.84092249337e-05)
(4.90984571555e-07 1.13448421985e-07 -1.76679810186e-05)
(5.15049767584e-07 9.64896760043e-08 -1.70278689401e-05)
(5.38168770077e-07 7.94605331248e-08 -1.65042619994e-05)
(5.56949401489e-07 5.98844527901e-08 -1.61060922123e-05)
(5.71391170712e-07 3.81081078722e-08 -1.58370376721e-05)
(5.7951319913e-07 1.32615798942e-08 -1.56907232067e-05)
(5.29839758958e-08 5.65166607121e-07 -2.03582340595e-05)
(1.45096246019e-07 5.56258758903e-07 -2.01217270786e-05)
(2.36072277617e-07 5.30916599637e-07 -1.9731037612e-05)
(3.17465136534e-07 4.90656186172e-07 -1.92043637035e-05)
(3.87448037188e-07 4.41914799048e-07 -1.85724490633e-05)
(4.45860574615e-07 3.90332158272e-07 -1.78653348544e-05)
(4.93813097508e-07 3.39169845694e-07 -1.71176797199e-05)
(5.32735699701e-07 2.90867356938e-07 -1.6367463817e-05)
(5.64521373468e-07 2.46451856851e-07 -1.56524289471e-05)
(5.91050919505e-07 2.05992722644e-07 -1.50024843881e-05)
(6.14214245024e-07 1.68583541442e-07 -1.44388968342e-05)
(6.3499217271e-07 1.32480263e-07 -1.39759437236e-05)
(6.49900747694e-07 9.56243828943e-08 -1.36218624849e-05)
(6.61083473454e-07 5.84029045875e-08 -1.33796612393e-05)
(6.66605164763e-07 1.98101822671e-08 -1.32436220771e-05)
(6.06894330777e-08 7.24922383831e-07 -1.59000924362e-05)
(1.63775335334e-07 7.1516013384e-07 -1.57037655881e-05)
(2.66553464521e-07 6.825364453e-07 -1.53694689479e-05)
(3.56646994443e-07 6.33302296908e-07 -1.49447186879e-05)
(4.33056359688e-07 5.73520775591e-07 -1.44353282961e-05)
(4.95771890578e-07 5.09040675794e-07 -1.38702797208e-05)
(5.45823048424e-07 4.43642657353e-07 -1.32752398386e-05)
(5.84902214494e-07 3.80108668319e-07 -1.26788265139e-05)
(6.14965658165e-07 3.20100688016e-07 -1.2109180192e-05)
(6.38111285394e-07 2.64412070972e-07 -1.15892752185e-05)
(6.56731568128e-07 2.12731447598e-07 -1.11370733372e-05)
(6.72206384401e-07 1.63800285692e-07 -1.07646701562e-05)
(6.81227679431e-07 1.1579537276e-07 -1.04783965138e-05)
(6.88554569788e-07 6.90620984554e-08 -1.02797837409e-05)
(6.91716528883e-07 2.3040661269e-08 -1.01646398627e-05)
(6.0187229371e-08 7.3158909011e-07 -1.02447626605e-05)
(1.62611869345e-07 7.15336929265e-07 -1.00939774352e-05)
(2.60481711236e-07 6.80642853e-07 -9.8733493127e-06)
(3.44293706058e-07 6.30629922198e-07 -9.58540742356e-06)
(4.1378522511e-07 5.70407604051e-07 -9.24932097346e-06)
(4.68470515405e-07 5.05458308976e-07 -8.87668431136e-06)
(5.1033748303e-07 4.39150640346e-07 -8.48532557986e-06)
(5.40948817635e-07 3.74340787914e-07 -8.0932684156e-06)
(5.62386743949e-07 3.12876152361e-07 -7.71792918992e-06)
(5.76849321367e-07 2.55849328358e-07 -7.37412038631e-06)
(5.86827688081e-07 2.03306873066e-07 -7.07444035159e-06)
(5.93893009324e-07 1.54238666132e-07 -6.82707303004e-06)
(5.95537613031e-07 1.07402000158e-07 -6.63580786352e-06)
(5.99338364228e-07 6.3144235692e-08 -6.5014450306e-06)
(5.97959888096e-07 2.08201423468e-08 -6.42253117496e-06)
(3.37865147066e-08 4.30143210078e-07 -3.46875925836e-06)
(8.98109269332e-08 4.13937474738e-07 -3.41590587173e-06)
(1.43294434921e-07 3.89420224947e-07 -3.3323182156e-06)
(1.88343812256e-07 3.56232096269e-07 -3.23239104166e-06)
(2.23720953842e-07 3.17666193912e-07 -3.11351475322e-06)
(2.499059707e-07 2.76843505648e-07 -2.98262768034e-06)
(2.67644436207e-07 2.36074398097e-07 -2.84526519102e-06)
(2.78334337006e-07 1.9712177199e-07 -2.70771045181e-06)
(2.83532394266e-07 1.61195741579e-07 -2.57593994543e-06)
(2.84867709405e-07 1.28913838617e-07 -2.4551678171e-06)
(2.8402677426e-07 1.002230352e-07 -2.3501542375e-06)
(2.82241981071e-07 7.42994256184e-08 -2.26370330077e-06)
(2.78911645761e-07 5.09012063607e-08 -2.19686846699e-06)
(2.77310749603e-07 2.95412813139e-08 -2.15088968238e-06)
(2.73663396122e-07 9.52351724987e-09 -2.12350410715e-06)
(-3.2840640644e-08 -1.116049206e-06 -3.0584716296e-05)
(-9.86647293404e-08 -1.09881636988e-06 -3.03471683715e-05)
(-1.63944663981e-07 -1.06713881558e-06 -2.98979227006e-05)
(-2.25785654143e-07 -1.02711812261e-06 -2.92572119311e-05)
(-2.85247440298e-07 -9.78903126263e-07 -2.84604090683e-05)
(-3.41629266338e-07 -9.21136329691e-07 -2.7544468802e-05)
(-3.94540709218e-07 -8.5387411657e-07 -2.65498030311e-05)
(-4.43633287247e-07 -7.77596404333e-07 -2.55288122489e-05)
(-4.87929640326e-07 -6.92842179261e-07 -2.45417418063e-05)
(-5.26224356062e-07 -5.99882363605e-07 -2.36416134524e-05)
(-5.57379188657e-07 -4.99190469231e-07 -2.28667813971e-05)
(-5.80180853403e-07 -3.92202224008e-07 -2.22418450036e-05)
(-5.94423074883e-07 -2.80907634532e-07 -2.17788088406e-05)
(-6.02306564702e-07 -1.68999965641e-07 -2.14790724001e-05)
(-6.05072685755e-07 -5.64289482692e-08 -2.13346278911e-05)
(-3.45579469726e-08 -9.94718265817e-07 -3.00956965152e-05)
(-1.01113741612e-07 -9.79068624023e-07 -2.98652289554e-05)
(-1.62183366033e-07 -9.46428941386e-07 -2.94059267818e-05)
(-2.20731667683e-07 -9.08450194995e-07 -2.87581570264e-05)
(-2.76429766953e-07 -8.62389261736e-07 -2.79541596039e-05)
(-3.28353519695e-07 -8.06947197685e-07 -2.70326310488e-05)
(-3.75918007983e-07 -7.42247915743e-07 -2.60346543706e-05)
(-4.18437891257e-07 -6.68979475682e-07 -2.50148308212e-05)
(-4.54632044042e-07 -5.88103248534e-07 -2.40348192377e-05)
(-4.83240014064e-07 -5.006355283e-07 -2.31463329532e-05)
(-5.03267117528e-07 -4.08132361373e-07 -2.23849042981e-05)
(-5.14048682468e-07 -3.13276222907e-07 -2.17723755755e-05)
(-5.16856025298e-07 -2.19343860058e-07 -2.13185113628e-05)
(-5.15909070451e-07 -1.29284902985e-07 -2.10238601773e-05)
(-5.14780371701e-07 -4.22077513238e-08 -2.08799976778e-05)
(-3.24255085133e-08 -8.89103717274e-07 -2.93397241763e-05)
(-9.44592303437e-08 -8.67308228987e-07 -2.90889634301e-05)
(-1.52049921285e-07 -8.3537013768e-07 -2.86271111664e-05)
(-2.07081880025e-07 -7.98779289539e-07 -2.79761091139e-05)
(-2.58906219607e-07 -7.54698669646e-07 -2.71703754417e-05)
(-3.06572620349e-07 -7.01675963759e-07 -2.62493543604e-05)
(-3.49044557761e-07 -6.39960883031e-07 -2.52564428403e-05)
(-3.85288253155e-07 -5.70470367758e-07 -2.4247348439e-05)
(-4.13942247169e-07 -4.94720757852e-07 -2.3282662042e-05)
(-4.34096595672e-07 -4.14444416976e-07 -2.24113194425e-05)
(-4.45344199193e-07 -3.31853363838e-07 -2.16657861132e-05)
(-4.47874067959e-07 -2.49993192893e-07 -2.10654774695e-05)
(-4.44175451329e-07 -1.72036939705e-07 -2.06188093027e-05)
(-4.38813599625e-07 -1.00055099471e-07 -2.0326542528e-05)
(-4.35720016859e-07 -3.24304248495e-08 -2.01808819052e-05)
(-3.01741268185e-08 -7.65521647318e-07 -2.81364439391e-05)
(-8.90214120807e-08 -7.46956567812e-07 -2.78882491681e-05)
(-1.42710101447e-07 -7.17716419745e-07 -2.74280769881e-05)
(-1.92814645291e-07 -6.83552640747e-07 -2.67848290513e-05)
(-2.39402202122e-07 -6.42673822834e-07 -2.59904541295e-05)
(-2.81118431935e-07 -5.93529433249e-07 -2.50853366303e-05)
(-3.16934252971e-07 -5.3659849969e-07 -2.41141134675e-05)
(-3.45821518364e-07 -4.73086448484e-07 -2.3131446854e-05)
(-3.66712025605e-07 -4.04985059826e-07 -2.21948511787e-05)
(-3.79251239649e-07 -3.34411239656e-07 -2.13495667342e-05)
(-3.83641165633e-07 -2.63733433408e-07 -2.0625057764e-05)
(-3.80684682685e-07 -1.95787776258e-07 -2.00390753407e-05)
(-3.73874753338e-07 -1.33002197291e-07 -1.95997407658e-05)
(-3.67760789603e-07 -7.6436814425e-08 -1.93087697099e-05)
(-3.64955404601e-07 -2.46559634346e-08 -1.91597374882e-05)
(-2.75575861498e-08 -6.4504071548e-07 -2.63847713257e-05)