/*--------------------------------*- C++ -*----------------------------------*\
| =========                 |                                                 |
| \\      /  F ield         | foam-extend: Open Source CFD                    |
|  \\    /   O peration     | Version:     4.1                                |
|   \\  /    A nd           | Web:         http://www.foam-extend.org         |
|    \\/     M anipulation  |                                                 |
\*---------------------------------------------------------------------------*/
FoamFile
{
    version     2.0;
    format      ascii;
    class       volScalarField;
    location    "1";
    object      epsilonEq;
}
// * * * * * * * * * * * * * * * * * * * * * * * * * * * * * * * * * * * * * //

dimensions      [0 0 0 0 0 0 0];

internalField   nonuniform List<scalar> 
100000
(
3.942754938365319e-07
3.901402621389776e-07
3.883532999471053e-07
3.892836048663269e-07
3.920937383709715e-07
3.965938907418859e-07
4.023362802279653e-07
4.090639260899258e-07
4.164937406282666e-07
4.244210651303325e-07
4.32661909724939e-07
4.410748846764642e-07
4.495426882330878e-07
4.579743520506443e-07
4.662975595809556e-07
4.744569599151234e-07
4.824101664978172e-07
4.901257428751633e-07
4.975808336919944e-07
5.047596757086145e-07
5.116520462975651e-07
5.182521920680916e-07
5.245579340247974e-07
5.305698801197035e-07
5.362908194454853e-07
5.417252525843534e-07
5.468790004420079e-07
5.517588412273988e-07
5.563722978297154e-07
5.607274134725585e-07
5.648325423413926e-07
5.68696290393764e-07
5.723273541934848e-07
5.75734408582163e-07
5.789261169446384e-07
5.819110316891465e-07
5.846975205686098e-07
5.872937959066267e-07
5.897078681270494e-07
5.919474962907174e-07
5.940202137513409e-07
5.959333237195878e-07
5.976938589007529e-07
5.993085911452198e-07
6.007840601749281e-07
6.021265585839858e-07
6.033421125420133e-07
6.044365065412314e-07
6.054153026695078e-07
6.062838320783371e-07
6.070471918384773e-07
6.077102629178913e-07
6.082777215620937e-07
6.087540405299758e-07
6.091434935127023e-07
6.094501676046226e-07
6.096779726622324e-07
6.098306469059585e-07
6.09911758210636e-07
6.099247126657181e-07
6.098727643321109e-07
6.097590230923865e-07
6.095864605160459e-07
6.093579135765179e-07
6.090760875385933e-07
6.087435637742491e-07
6.083628081223515e-07
6.079361780385454e-07
6.074659252170696e-07
6.069541981619148e-07
6.064030444781707e-07
6.058144178769282e-07
6.051901850841706e-07
6.045321297913232e-07
6.038419544177978e-07
6.031212816161649e-07
6.023716607779885e-07
6.015945731901539e-07
6.007914329155316e-07
5.999635879124849e-07
5.991123280851856e-07
5.982388849113843e-07
5.973444333006113e-07
5.964300882677088e-07
5.954969280426269e-07
5.945459644542481e-07
5.935781928385646e-07
5.92594500124058e-07
5.915958566870659e-07
5.905829255576391e-07
5.895568465253858e-07
5.885177059272077e-07
5.874676679628106e-07
5.864047834569527e-07
5.853359516744625e-07
5.842511763841709e-07
5.831788291960049e-07
5.820723811888074e-07
5.810714864527022e-07
5.798818525915319e-07
4.084977525681841e-07
4.037363419771147e-07
4.012449903576842e-07
4.014562670878678e-07
4.035326773291184e-07
4.073131602769211e-07
4.123574084968981e-07
4.184208221139685e-07
4.252244465566417e-07
4.325673470632531e-07
4.402658554418039e-07
4.481780633776314e-07
4.561848267919752e-07
4.641929640737085e-07
4.721275431160532e-07
4.799305132462e-07
4.87556814791907e-07
4.949724653508789e-07
5.021521994578895e-07
5.090779933047492e-07
5.157375923638133e-07
5.221233716053612e-07
5.28231442261854e-07
5.34060884671329e-07
5.396131062499293e-07
5.448913479415636e-07
5.499003189121265e-07
5.546457904850415e-07
5.59134348595706e-07
5.633732400809748e-07
5.673700880284517e-07
5.711327957859361e-07
5.746694818937598e-07
5.779882890697588e-07
5.810973530667141e-07
5.840047948130935e-07
5.86718595011986e-07
5.892465717464763e-07
5.915963996518112e-07
5.937755531257874e-07
5.957912775739427e-07
5.976506072971704e-07
5.99360354421003e-07
6.009270866398306e-07
6.023571363120217e-07
6.036566122378884e-07
6.04831385854619e-07
6.058870911989027e-07
6.068291436299221e-07
6.076627467182614e-07
6.083928832859805e-07
6.090243234932959e-07
6.09561640124258e-07
6.100092129531808e-07
6.103712306546682e-07
6.106517002437557e-07
6.108544554319909e-07
6.109831643464786e-07
6.110413308541351e-07
6.110323013900796e-07
6.109592749104429e-07
6.108253098853699e-07
6.106333284328729e-07
6.103861212531597e-07
6.100863517527064e-07
6.097365629190605e-07
6.093391842631328e-07
6.088965382136009e-07
6.084108431105983e-07
6.078842170153361e-07
6.073186799540554e-07
6.067161599738877e-07
6.060784987834062e-07
6.054074562707633e-07
6.047047132626842e-07
6.039718731422168e-07
6.032104666752162e-07
6.024219571659267e-07
6.016077423333464e-07
6.007691557379491e-07
5.99907473467114e-07
5.990239163204102e-07
5.981196523731418e-07
5.971957937003465e-07
5.962534164658881e-07
5.952935436102435e-07
5.943171855723824e-07
5.933252804569385e-07
5.92318840747704e-07
5.912987032589406e-07
5.902660566581234e-07
5.89221533397769e-07
5.881670519917134e-07
5.87102522687813e-07
5.86032175529342e-07
5.849533201206815e-07
5.838760175828349e-07
5.827908611827853e-07
5.817099778370204e-07
5.80620262629234e-07
4.227134445474654e-07
4.173319371026578e-07
4.141454937560568e-07
4.136485229329486e-07
4.150015820935249e-07
4.180712551403275e-07
4.224239832865166e-07
4.27827351841091e-07
4.340065964041667e-07
4.407647722064533e-07
4.479188521330024e-07
4.553267942332914e-07
4.628679546724358e-07
4.70447197845376e-07
4.779872399012973e-07
4.85427569577442e-07
4.927205992469225e-07
4.998298944159233e-07
5.067278999763101e-07
5.133944127864164e-07
5.19815174451107e-07
5.259807327811367e-07
5.31885517248768e-07
5.375270769677867e-07
5.429054597963335e-07
5.480226564189011e-07
5.528822250154798e-07
5.574889549871336e-07
5.618485060778278e-07
5.659672674961094e-07
5.69852150439358e-07
5.735103765577418e-07
5.769494237166884e-07
5.801769048294315e-07
5.832004581639752e-07
5.860277253258171e-07
5.88666279199237e-07
5.911235761265954e-07
5.934069371832675e-07
5.955235123250717e-07
5.974802691946794e-07
5.992839871236732e-07
6.009412315146664e-07
6.024583475383073e-07
6.038414720188965e-07
6.050965295864896e-07
6.062292171483762e-07
6.072450127195917e-07
6.081491899554854e-07
6.089468185169952e-07
6.09642756837798e-07
6.102416622214895e-07
6.107480041024421e-07
6.111660644566134e-07
6.114999403982779e-07
6.117535561337397e-07
6.1193066805697e-07
6.120348705946999e-07
6.120696006412332e-07
6.120381443547973e-07
6.119436430350178e-07
6.117890994347918e-07
6.115773844139319e-07
6.113112423069907e-07
6.109932932906299e-07
6.106260390568195e-07
6.102118700729953e-07
6.097530727911264e-07
6.092518322612873e-07
6.087102351852994e-07
6.081302715021866e-07
6.075138409673739e-07
6.068627598640377e-07
6.061787651198254e-07
6.054635150031077e-07
6.04718590781847e-07
6.039455033404444e-07
6.031456989278423e-07
6.023205586810801e-07
6.014714003697282e-07
6.005994866951612e-07
5.997060273121468e-07
5.987921793506873e-07
5.978590479556853e-07
5.969077042990366e-07
5.959391699225716e-07
5.949544477063798e-07
5.939544863870098e-07
5.92940279975528e-07
5.919126933347961e-07
5.908728225073944e-07
5.898213841683713e-07
5.887598930867754e-07
5.87688521126315e-07
5.866099525969026e-07
5.855224617357402e-07
5.84430623798835e-07
5.833293689457524e-07
5.822105233309574e-07
5.810884351767762e-07
4.369190761453801e-07
4.30923246968518e-07
4.270503025293842e-07
4.258551792921012e-07
4.264947328041226e-07
4.288621617335059e-07
4.325299453628674e-07
4.372776460639088e-07
4.428346671963716e-07
4.49008252490212e-07
4.556163288695053e-07
4.6251701667693e-07
4.695884890258279e-07
4.767339639394894e-07
4.838740267844051e-07
4.909458889366838e-07
4.978996245347919e-07
5.04696472205147e-07
5.113066615567532e-07
5.177079049774433e-07
5.238839875167488e-07
5.298236507745856e-07
5.355196922616422e-07
5.409681436595164e-07
5.461676758871518e-07
5.511190684144794e-07
5.558247249620278e-07
5.602884045686088e-07
5.645148842990819e-07
5.685096976812723e-07
5.722789800407752e-07
5.758292954691618e-07
5.79167498452843e-07
5.823006180150355e-07
5.85235792002498e-07
5.879802087876231e-07
5.905410047382553e-07
5.929252442064919e-07
5.951399083204412e-07
5.971918273335097e-07
5.99087665797154e-07
6.00833935997824e-07
6.024369639474989e-07
6.039028656714648e-07
6.052375664465362e-07
6.06446804159059e-07
6.07536101986498e-07
6.085107736355834e-07
6.093759433241846e-07
6.101365451630322e-07
6.107973114598775e-07
6.113627802449425e-07
6.118373110990794e-07
6.122250871518322e-07
6.125301130523034e-07
6.127562249006351e-07
6.129070979991599e-07
6.12986252718058e-07
6.129970564558726e-07
6.129427300934616e-07
6.128263545219015e-07
6.126508766152971e-07
6.124191145372799e-07
6.1213376273879e-07
6.117973949326017e-07
6.114124704039864e-07
6.109813404017805e-07
6.105062541901823e-07
6.099893611544979e-07
6.09432714790593e-07
6.088382744974713e-07
6.082079114441765e-07
6.075434146266329e-07
6.068464958703636e-07
6.061187902929979e-07
6.053618575260168e-07
6.045771881292139e-07
6.037662092427002e-07
6.029302839673922e-07
6.020707147064106e-07
6.011887503408859e-07
6.002855881022344e-07
5.993623732948765e-07
5.984202024820302e-07
5.974601364460708e-07
5.964831920745691e-07
5.95490359669012e-07
5.944825902598439e-07
5.934608351553789e-07
5.924259701463076e-07
5.913789278271289e-07
5.903204843578662e-07
5.892515532147854e-07
5.881726674943478e-07
5.870844474875556e-07
5.859871532811626e-07
5.848787419352389e-07
5.837637930298438e-07
5.826153599385168e-07
5.814850182682182e-07
4.511113007336242e-07
4.445064150225293e-07
4.399550302167471e-07
4.380712640091901e-07
4.380067004029894e-07
4.396801841927171e-07
4.426695493713505e-07
4.467660812309758e-07
4.517033227452411e-07
4.572928539856808e-07
4.633537915513634e-07
4.697447226691994e-07
4.763429213860055e-07
4.830502090530697e-07
4.897852814973061e-07
4.964832538669043e-07
5.030920228020194e-07
5.095706455939396e-07
5.15887218946664e-07
5.220174414698674e-07
5.279432161059958e-07
5.33651506608672e-07
5.391334978703468e-07
5.44383762875348e-07
5.493995746827286e-07
5.541804815479184e-07
5.587278005502021e-07
5.630442390426043e-07
5.671336387279395e-07
5.710007206380449e-07
5.746508461014818e-07
5.780898700970023e-07
5.813240332728173e-07
5.84359801226053e-07
5.872037778900495e-07
5.898626745226975e-07
5.923432069332166e-07
5.946520463279101e-07
5.967958061420277e-07
5.987809899696712e-07
6.006139669534276e-07
6.023009709822004e-07
6.038480728360689e-07
6.052611603422252e-07
6.065459468363651e-07
6.077079716256469e-07
6.08752576265553e-07
6.096849098460622e-07
6.105099447060556e-07
6.112324713436216e-07
6.118570894483531e-07
6.123882174813923e-07
6.128301035285586e-07
6.131868253419257e-07
6.134622908519063e-07
6.136602471970126e-07
6.137842857342895e-07
6.138378482382448e-07
6.138242300921037e-07
6.13746585861492e-07
6.136079340177755e-07
6.134111623482005e-07
6.131590339743908e-07
6.128541926116378e-07
6.124991647640199e-07
6.120963651116223e-07
6.116481025029144e-07
6.111565867553037e-07
6.106239310279204e-07
6.100521548036583e-07
6.094431850757391e-07
6.08798862812444e-07
6.08120948942123e-07
6.074111286599372e-07
6.066710120777308e-07
6.059021358665891e-07
6.05105969212068e-07
6.042839192078481e-07
6.03437329565072e-07
6.025674841301291e-07
6.016756147806365e-07
6.007629037618645e-07
5.998304813090304e-07
5.988794279983635e-07
5.979107851639303e-07
5.969255496748517e-07
5.959246821494598e-07
5.949091064203014e-07
5.93879717190391e-07
5.928373484675154e-07
5.917828045433482e-07
5.907168123338672e-07
5.896399964659027e-07
5.885529223823985e-07
5.874556181551368e-07
5.863488828389308e-07
5.852296571654848e-07
5.841051747155046e-07
5.829462814004904e-07
5.81816542700411e-07
4.652865712262994e-07
4.580776443687171e-07
4.528554240168288e-07
4.502919917038981e-07
4.495322730190652e-07
4.505198451849544e-07
4.528372570136393e-07
4.562872313310462e-07
4.606073996627077e-07
4.656137834172208e-07
4.711268832785382e-07
4.770060031583582e-07
4.83127797883649e-07
4.893929195877964e-07
4.957183983637974e-07
5.020374502722303e-07
5.082959334297604e-07
5.144508591313714e-07
5.204682997877356e-07
5.263219925880667e-07
5.319920308064921e-07
5.374636809820799e-07
5.42726494017001e-07
5.477735997155997e-07
5.526009537984652e-07
5.572068397456837e-07
5.61591461741609e-07
5.657565326001985e-07
5.697049466374584e-07
5.734405677094394e-07
5.769680055744128e-07
5.80292420489076e-07
5.834194051065085e-07
5.863548451677612e-07
5.891048256964806e-07
5.916755751565411e-07
5.940733637834471e-07
5.963044654105122e-07
5.983751312827231e-07
6.002915251841043e-07
6.020597060791724e-07
6.036856297475067e-07
6.051751098578611e-07
6.065337944541957e-07
6.077671768183561e-07
6.088805964243473e-07
6.098792110837947e-07
6.107679972882093e-07
6.11551768147479e-07
6.122351695193111e-07
6.128226663708887e-07
6.133185510155629e-07
6.137269558668781e-07
6.140518520219413e-07
6.142970471333533e-07
6.144661946910102e-07
6.145627998445403e-07
6.145902246501234e-07
6.145516899736559e-07
6.144502803242288e-07
6.142889485730255e-07
6.14070521682838e-07
6.137977063531418e-07
6.134730935116537e-07
6.130991599140876e-07
6.126782739277731e-07
6.122127014504105e-07
6.117046114981519e-07
6.111560782915823e-07
6.105690853465852e-07
6.099455265596307e-07
6.092872117583359e-07
6.085958725517946e-07
6.078731666633375e-07
6.071206778005367e-07
6.063399176227813e-07
6.05532332191447e-07
6.04699307362033e-07
6.038421664108964e-07
6.029621730264776e-07
6.020605385158216e-07
6.011384255182475e-07
6.001969453927022e-07
5.992371608140305e-07
5.982600914628743e-07
5.972667117187314e-07
5.962579494498531e-07
5.952346974914156e-07
5.941977932052288e-07
5.931480334734451e-07
5.920861131950569e-07
5.910127461068175e-07
5.899283403923288e-07
5.888336172835117e-07
5.877281688910417e-07
5.866136263059856e-07
5.854859665420567e-07
5.843556937461377e-07
5.83189630218494e-07
5.820651038812713e-07
4.794413911170489e-07
4.716332208574901e-07
4.657473515455478e-07
4.625127658273923e-07
4.610664587858451e-07
4.613759301348949e-07
4.630278096912083e-07
4.65835933462128e-07
4.695419473971983e-07
4.739664061372337e-07
4.789313688625151e-07
4.842970507415035e-07
4.899397280895128e-07
4.95759124824666e-07
5.016708058794904e-07
5.07606281776684e-07
5.135095123119968e-07
5.193355614510317e-07
5.25048612321876e-07
5.306205450653639e-07
5.360296387615474e-07
5.412595282047138e-07
5.46298219568118e-07
5.511373665988537e-07
5.557716174608629e-07
5.601980565182946e-07
5.644157534248491e-07
5.684253982944371e-07
5.722289707462106e-07
5.758294868854269e-07
5.792307744828883e-07
5.824372911845136e-07
5.854539947610977e-07
5.882861822076705e-07
5.909393981804986e-07
5.934193874078559e-07
5.957319780940877e-07
5.978830319302358e-07
5.998784246093282e-07
6.017239812966792e-07
6.034254481668025e-07
6.049884912459827e-07
6.064186584124949e-07
6.077213557103948e-07
6.089018539640362e-07
6.099652845715092e-07
6.109166141439169e-07
6.117606450570095e-07
6.125020279423928e-07
6.131452571394705e-07
6.136946591560269e-07
6.141543985259817e-07
6.14528487732123e-07
6.148207861718026e-07
6.150349985551897e-07
6.151746829817923e-07
6.152432555697797e-07
6.152439949510892e-07
6.15180044337317e-07
6.150544164943613e-07
6.148699977446354e-07
6.14629552189709e-07
6.143357268663706e-07
6.139910572148483e-07
6.135979691742993e-07
6.131587833482531e-07
6.126757202887061e-07
6.12150906767328e-07
6.115863776338792e-07
6.109840788489394e-07
6.10345868825707e-07
6.096735241924643e-07
6.089687457650407e-07
6.082331626926409e-07
6.074683315439762e-07
6.066757374332014e-07
6.058568009770391e-07
6.050128844905735e-07
6.041452895023597e-07
6.032552587561965e-07
6.023439827675731e-07
6.014126023334902e-07
6.004622051912917e-07
5.994938298647309e-07
5.985084712090543e-07
5.975070786140802e-07
5.964905492490099e-07
5.954597458768006e-07
5.944154636268653e-07
5.933584688224318e-07
5.922893999924576e-07
5.912089668264169e-07
5.901175063032893e-07
5.890158502241816e-07
5.879035146959663e-07
5.867826000727389e-07
5.856488122473161e-07
5.845145093747116e-07
5.83343150273668e-07
5.822232877022679e-07
4.935722910337122e-07
4.851694605915984e-07
4.786267879252063e-07
4.747291549055621e-07
4.726044981086012e-07
4.72243437449411e-07
4.732361119988918e-07
4.7540717140756e-07
4.785021644351137e-07
4.823462209417108e-07
4.867631007788763e-07
4.916141114518229e-07
4.967753699291502e-07
5.021459019330172e-07
5.076399791305987e-07
5.131875570555217e-07
5.187308903803809e-07
5.242232255620622e-07
5.296268953304188e-07
5.349120441232016e-07
5.400552334274749e-07
5.450384478090307e-07
5.49848202248534e-07
5.544747484304202e-07
5.58911409473054e-07
5.631540662318885e-07
5.672006924735303e-07
5.7105096121923e-07
5.747059173543813e-07
5.781677313885521e-07
5.814394624030355e-07
5.845248550712455e-07
5.874282146205298e-07
5.901542518125616e-07
5.927079736891806e-07
5.950946260913022e-07
5.973195836493328e-07
5.993882964523604e-07
6.013062608916696e-07
6.030789526239233e-07
6.047117968820447e-07
6.062101667390196e-07
6.075793412945575e-07
6.08824476725992e-07
6.099506144914645e-07
6.109626756077733e-07
6.118654308949464e-07
6.126635016734635e-07
6.133613728436263e-07
6.139633851205437e-07
6.144737216495183e-07
6.148964139013199e-07
6.152353513397966e-07
6.154942795623702e-07
6.156767976232447e-07
6.157863646738676e-07
6.158263042453129e-07
6.15799808938787e-07
6.157099425203985e-07
6.155596435850706e-07
6.153517286524421e-07
6.150888968007619e-07
6.147737347921481e-07
6.144087210308718e-07
6.139962275931511e-07
6.135385249842737e-07
6.130377870351366e-07
6.124960963817249e-07
6.119154467989475e-07
6.112977458998033e-07
6.10644815778661e-07
6.099583984490912e-07
6.092401619441028e-07
6.084917047247079e-07
6.077145550584717e-07
6.069101715452673e-07
6.060799487262443e-07
6.052252225693985e-07
6.043472691251596e-07
6.034473076233489e-07
6.025265067549935e-07
6.015859862661651e-07
6.006268117071828e-07
5.996499980862689e-07
5.98656514387941e-07
5.976472846187683e-07
5.966231775262086e-07
5.955850313848718e-07
5.945336096624976e-07
5.934696617675762e-07
5.923937918974938e-07
5.913067293512607e-07
5.90208775888182e-07
5.891008855094876e-07
5.879825080731619e-07
5.868561732505613e-07
5.857171823003287e-07
5.845795752683578e-07
5.834029277916161e-07
5.822868461402094e-07
5.076758036565338e-07
4.986827239940681e-07
4.91489785234967e-07
4.869368583110393e-07
4.841417528356605e-07
4.831175100585027e-07
4.834572512684211e-07
4.849961156649778e-07
4.874834157967032e-07
4.907488548780503e-07
4.946180292272371e-07
4.989535299046379e-07
5.036314645784304e-07
5.085503468659877e-07
5.136233840369176e-07
5.187791295796983e-07
5.23958226882289e-07
5.291122839818517e-07
5.342018903276701e-07
5.391954722059529e-07
5.440679743013338e-07
5.487998124080294e-07
5.533760081379581e-07
5.577854371368761e-07
5.620201452091581e-07
5.660748191310842e-07
5.699463296222392e-07
5.736333456417083e-07
5.771359929856342e-07
5.804555881966468e-07
5.835944087600129e-07
5.865554931250173e-07
5.893424970851655e-07
5.919595313584981e-07
5.944110561860492e-07
5.967018191638888e-07
5.988367376656286e-07
6.008208411092382e-07
6.026592385552132e-07
6.043570517877107e-07
6.059193813888476e-07
6.073513000596747e-07
6.086578118519636e-07
6.098438200228149e-07
6.109141306545326e-07
6.118734474360225e-07
6.127263424394727e-07
6.134772534761631e-07
6.141304944210493e-07
6.146902469489989e-07
6.151605471594111e-07
6.155452908532233e-07
6.158482417923861e-07
6.160730281619758e-07
6.162231391120483e-07
6.163019317545592e-07
6.163126354917667e-07
6.16258355031579e-07
6.16142071320512e-07
6.159666457605644e-07
6.157348232773375e-07
6.154492355878545e-07
6.151124063826224e-07
6.147267556177769e-07
6.142946007738636e-07
6.13818160626765e-07
6.132995603835454e-07
6.127408368292729e-07
6.121439404577452e-07
6.115107384889713e-07
6.10843015556188e-07
6.101424782784585e-07
6.094107609220208e-07
6.086494293882048e-07
6.078599808431012e-07
6.070438450442401e-07
6.062023906172142e-07
6.053369286591095e-07
6.044487096427678e-07
6.035389265603155e-07
6.026087228310174e-07
6.016591942624336e-07
6.006913836334813e-07
5.997062838680336e-07
5.987048415644713e-07
5.976879583196143e-07
5.966564796375588e-07
5.95611223277694e-07
5.945529311273974e-07
5.934823452872309e-07
5.924000523748831e-07
5.91306803461612e-07
5.902028909290006e-07
5.890893680360774e-07
5.879656391327698e-07
5.868345452775021e-07
5.856909787522728e-07
5.845503814307276e-07
5.833684472258117e-07
5.822554111874321e-07
5.21748484194441e-07
5.121694312896241e-07
5.043324960916407e-07
4.991317005416553e-07
4.956737873053212e-07
4.939935395556821e-07
4.936865445920927e-07
4.945981065527117e-07
4.964811837009017e-07
4.9917006484333e-07
5.02492227635167e-07
5.06311700413727e-07
5.105047868498544e-07
5.14969631611563e-07
5.196185224268793e-07
5.243788336346617e-07
5.291897173331509e-07
5.340012107756222e-07
5.387723076406912e-07
5.434698070003266e-07
5.480670656119377e-07
5.525429939333747e-07
5.568811809929832e-07
5.610691451332872e-07
5.650976646823748e-07
5.689602589031541e-07
5.726527189093122e-07
5.761727070747079e-07
5.795194244965889e-07
5.826933451077883e-07
5.856959701045286e-07
5.885296216375582e-07
5.911973000842915e-07
5.937025163744942e-07
5.960491806186404e-07
5.982415355385492e-07
6.002840346347646e-07
6.021812817110493e-07
6.039379940057327e-07
6.055589322530389e-07
6.07048867758504e-07
6.084125701009189e-07
6.096547612012218e-07
6.107800839586175e-07
6.117931060173312e-07
6.126983110481637e-07
6.13500067332464e-07
6.142026236218798e-07
6.148101181594647e-07
6.153265701289015e-07
6.157558659813135e-07
6.161017625589563e-07
6.163678934737433e-07
6.165577658385675e-07
6.16674756715923e-07
6.167221185632667e-07
6.167029829230038e-07
6.166203639407988e-07
6.164771586543197e-07
6.162761493323442e-07
6.160200063578893e-07
6.157112919013881e-07
6.153524645672311e-07
6.149458832413335e-07
6.144938085768182e-07
6.139984061156336e-07
6.134617510489381e-07
6.128858332762772e-07
6.12272558845467e-07
6.116237524025747e-07
6.109411587550631e-07
6.102264479645233e-07
6.094812202775527e-07
6.087070088709126e-07
6.079052790438211e-07
6.070774293036844e-07
6.062247983657388e-07
6.053486699222937e-07
6.044502698256657e-07
6.035307675647925e-07
6.025912823834929e-07
6.016328851391764e-07
6.006565940808536e-07
5.996633795097444e-07
5.986541661305457e-07
5.976298351179396e-07
5.965912130131914e-07
5.955391024266281e-07
5.944742284091542e-07
5.933973302257796e-07
5.923089852958621e-07
5.912099661907162e-07
5.901005542958296e-07
5.889818833398501e-07
5.878532922646244e-07
5.867178868850368e-07
5.855700981795911e-07
5.844266898047579e-07
5.832395077430346e-07
5.821291129078903e-07
5.357868928080899e-07
5.256260415821099e-07
5.171511432482099e-07
5.113096208369542e-07
5.071962928090652e-07
5.048670232255808e-07
5.039194169077489e-07
5.042086458637319e-07
5.054911127461369e-07
5.07605699212802e-07
5.103818567045315e-07
5.136851267097537e-07
5.173921523105991e-07
5.214009304081964e-07
5.256229507562009e-07
5.299845325966553e-07
5.344235204677107e-07
5.38888483059487e-07
5.43336886801932e-07
5.477340060625075e-07
5.520516893172711e-07
5.56267382543944e-07
5.603632741364178e-07
5.643255667987871e-07
5.681438064071649e-07
5.718103540063413e-07
5.753199263971027e-07
5.786691970260908e-07
5.818564514619137e-07
5.848813181773788e-07
5.877445212522706e-07
5.904476675109729e-07
5.929930997561115e-07
5.953837261559493e-07
5.976229029073803e-07
5.997143636615712e-07
6.016620924112188e-07
6.034702601046853e-07
6.051431890983839e-07
6.066852771724032e-07
6.081009587471459e-07
6.093946924963114e-07
6.105709145609153e-07
6.116340043668622e-07
6.125882866134967e-07
6.134380199659204e-07
6.141873636806788e-07
6.148403731992998e-07
6.154010083519127e-07
6.158731227486751e-07
6.162604485695183e-07
6.165665996370264e-07
6.167950770134029e-07
6.169492641463962e-07
6.170324223556022e-07
6.170476965556754e-07
6.169981183597373e-07
6.168866082654322e-07
6.167159758533445e-07
6.164889222015912e-07
6.162080416509222e-07
6.158758249987781e-07
6.15494664133839e-07
6.150668552268748e-07
6.145945999024527e-07
6.140800084429937e-07
6.135251040438531e-07
6.129318277322832e-07
6.123020400616817e-07
6.116375230142209e-07
6.109399802210552e-07
6.102110419657317e-07
6.094522715907195e-07
6.086651687264919e-07
6.078511674665131e-07
6.070116360156221e-07
6.061478830124442e-07
6.052611623442475e-07
6.043526713487776e-07
6.034235534055584e-07
6.02474904345498e-07
6.015077726867171e-07
6.005231540596332e-07
5.995219964966343e-07
5.985052045158049e-07
5.974736404613385e-07
5.964281120788733e-07
5.953694097324008e-07
5.942982466067462e-07
5.93215355937012e-07
5.921213114268032e-07
5.910168992315816e-07
5.899023909031934e-07
5.887789829800952e-07
5.876459343358972e-07
5.865065799087865e-07
5.853548718953044e-07
5.842088323377342e-07
5.830165633966597e-07
5.819086212370275e-07
5.497875740849476e-07
5.390490435179409e-07
5.299420059057063e-07
5.234666305516319e-07
5.187050645240925e-07
5.157336275439804e-07
5.141514583325779e-07
5.138233457724787e-07
5.145089801076671e-07
5.160517518887848e-07
5.182831454553538e-07
5.210703617949916e-07
5.242904659194637e-07
5.278414573452976e-07
5.316342192665709e-07
5.355941266659798e-07
5.396578275086321e-07
5.437725574255963e-07
5.478943587804423e-07
5.519870520986168e-07
5.56021034891936e-07
5.599723500452983e-07
5.638218393230922e-07
5.675544171939276e-07
5.711584168399047e-07
5.74625067031124e-07
5.779480266167364e-07
5.811229878005138e-07
5.841473285371102e-07
5.870198357508999e-07
5.8974045590639e-07
5.923100809332059e-07
5.947303964675174e-07
5.970037069986596e-07
5.991328095045408e-07
6.011209211432417e-07
6.029715545831005e-07
6.046884472165172e-07
6.062755199379322e-07
6.077368005966822e-07
6.090763825003498e-07
6.102984095420379e-07
6.114070280336777e-07
6.124063497188108e-07
6.133004507992412e-07
6.140933598966676e-07
6.14789024010773e-07
6.153913019310292e-07
6.159039703145037e-07
6.163307131638911e-07
6.166751059190747e-07
6.169406162360043e-07
6.171306080891673e-07
6.172483378693302e-07
6.172969493043842e-07
6.172794775665737e-07
6.171988517490311e-07
6.170578966020101e-07
6.168593316110899e-07
6.166057734868249e-07
6.162997379838068e-07
6.159436425297302e-07
6.155398103645726e-07
6.150904736685085e-07
6.145977736946559e-07
6.140637634802921e-07
6.134904122249464e-07
6.128796102839731e-07
6.12233170439198e-07
6.115528303819374e-07
6.108402530052238e-07
6.100970296549821e-07
6.093246848627477e-07
6.085246807096978e-07
6.076984169931621e-07
6.068472310019531e-07
6.059724021541765e-07
6.0507515621495e-07
6.041566631851145e-07
6.032180393191604e-07
6.022603539143525e-07
6.012846314725396e-07
6.002918456754942e-07
5.9928292280221e-07
5.982587471794506e-07
5.972201658152373e-07
5.961679690650588e-07
5.951029336083157e-07
5.940257645397343e-07
5.929371875053092e-07
5.918377683364899e-07
5.907283069137616e-07
5.89609052405175e-07
5.884812581189081e-07
5.87344088927e-07
5.862010940025127e-07
5.850457382343639e-07
5.838972667023838e-07
5.827001498343611e-07
5.815946024089853e-07
5.637471242978793e-07
5.524349455470138e-07
5.427014598203216e-07
5.355988960034414e-07
5.301960390550081e-07
5.265891397770865e-07
5.243784098230035e-07
5.234379638820537e-07
5.23530648609743e-07
5.245043113151725e-07
5.261924414980451e-07
5.284640122362363e-07
5.311966653135397e-07
5.34288498609083e-07
5.376499193349715e-07
5.412055069867879e-07
5.448908396018522e-07
5.486519248257952e-07
5.524434654442224e-07
5.562279124505078e-07
5.599742889363572e-07
5.636572844375774e-07
5.672564353270386e-07
5.707554073635012e-07
5.741413472038539e-07
5.774043721723332e-07
5.805371039765594e-07
5.83534264175117e-07
5.863923265556264e-07
5.891092412197662e-07
5.916841831834183e-07
5.941173334574933e-07
5.964097175910075e-07
5.98563029983201e-07
6.005795081306336e-07
6.024618529039251e-07
6.042131006752862e-07
6.058365500231676e-07
6.073357161442262e-07
6.087142522880917e-07
6.099759069143703e-07
6.111245055178226e-07
6.121638994222084e-07
6.130979275859674e-07
6.139304144511669e-07
6.146651550343836e-07
6.153058792202851e-07
6.158562450625666e-07
6.163198435055892e-07
6.167001856098209e-07
6.170006856692267e-07
6.172246618278418e-07
6.173753387487086e-07
6.174558424513423e-07
6.174691954156312e-07
6.174183202828913e-07
6.173060411798944e-07
6.171350848103204e-07
6.169080787599139e-07
6.166275532808331e-07
6.16295943206497e-07
6.159155906477175e-07
6.154887479815696e-07
6.150175806141381e-07
6.145041676289021e-07
6.139505041781473e-07
6.133585045970471e-07
6.12730007098449e-07
6.120667750862602e-07
6.113704994974684e-07
6.106427993314806e-07
6.098852257273851e-07
6.090992661988102e-07
6.082863468961254e-07
6.074478315205488e-07
6.065850226445319e-07
6.056991676349964e-07
6.047914626627586e-07
6.038630503532205e-07
6.029150214954869e-07
6.019484205080726e-07
6.009642474222814e-07
5.999634535571412e-07
5.989469450804268e-07
5.979155849444252e-07
5.968702021447464e-07
5.958115738698001e-07
5.947404624712957e-07
5.936575599911194e-07
5.925635912424976e-07
5.914591039122806e-07
5.903449104586378e-07
5.892212319125825e-07
5.880893696032027e-07
5.869483876907894e-07
5.858020394794861e-07
5.846433050851281e-07
5.834926227586672e-07
5.822909459441878e-07
5.811878034193122e-07
5.776621437248909e-07
5.657803087064548e-07
5.554259038559297e-07
5.477026246523554e-07
5.416652545257998e-07
5.374294522374679e-07
5.345961195926044e-07
5.330484060907246e-07
5.325521178182393e-07
5.329595276835689e-07
5.341061548271789e-07
5.358627832056675e-07
5.381077385644983e-07
5.407393438593345e-07
5.43667659347357e-07
5.46816596039704e-07
5.50120768715965e-07
5.535250635008484e-07
5.569829419072542e-07
5.604555611913673e-07
5.639106393029224e-07
5.673215696432706e-07
5.706666213958199e-07
5.739282494628982e-07
5.770924510097191e-07
5.8014825448979e-07
5.830872563707177e-07
5.85903218445552e-07
5.885917225410742e-07
5.911498925089321e-07
5.935761343026197e-07