/*--------------------------------*- C++ -*----------------------------------*\
| =========                 |                                                 |
| \\      /  F ield         | foam-extend: Open Source CFD                    |
|  \\    /   O peration     | Version:     4.1                                |
|   \\  /    A nd           | Web:         http://www.foam-extend.org         |
|    \\/     M anipulation  |                                                 |
\*---------------------------------------------------------------------------*/
FoamFile
{
    version     2.0;
    format      ascii;
    class       volScalarField;
    location    "1";
    object      sigmaEq;
}
// * * * * * * * * * * * * * * * * * * * * * * * * * * * * * * * * * * * * * //

dimensions      [1 -1 -2 0 0 0 0];

internalField   nonuniform List<scalar> 
100000
(
95535.9850450058
94533.98659521382
94100.99191026016
94326.41194837922
95007.32891296617
96097.75044899543
97489.17559369927
99119.33593717433
100919.6371522339
102840.4888585037
104837.3088948891
106875.8374408355
108927.6513795559
110970.7083815023
112987.48559077
114964.5710563568
116891.6941898557
118761.2376966742
120567.6635484448
122307.1521909335
123977.2266028715
125576.4926934222
127104.4224752394
128561.1632597743
129947.3908656369
131264.1958185164
132512.9885686404
133695.4115281774
134813.2875510465
135868.5655721969
136863.2698750297
137799.4857492582
138679.3204391905
139504.875925678
140278.2514135086
141001.5192169855
141676.7069070093
142305.8043927596
142890.7526615543
143433.43179352
143935.6671782096
144399.2284397463
144825.819656721
145217.0817005725
145574.5991962326
145899.8968876581
146194.4349621032
146459.6150465292
146696.7848776115
146907.2362343663
147092.2041762464
147252.8713993352
147390.370993892
147505.7867438019
147600.1541973086
147674.4636888124
147729.6626066179
147766.65675029
147786.3106433464
147789.4496074625
147776.8621266269
147749.301749309
147707.4885096573
147652.1098281563
147583.8212112745
147503.2481452989
147410.9881219544
147307.6123708783
147193.6664949053
147069.6710930794
146936.1223158645
146793.4935624864
146642.2371550106
146482.7852955899
146315.5504935433
146140.9259300707
145959.2870346665
145770.9927345373
145576.3856679942
145375.7924557175
145169.5256514104
144957.8836516047
144741.1511459174
144519.5983110217
144293.4864103288
144063.0606177601
143828.562110883
143590.205799291
143348.2268126352
143102.7858081971
142854.1589657666
142602.3672054388
142347.9349294503
142090.3898376462
141831.4036749659
141568.554277703
141308.7163051858
141040.6154419034
140798.0909481548
140509.8335125635
98982.14773767539
97828.42132522396
97224.7476635927
97275.94164052181
97779.07181436331
98695.11191325399
99917.37205886377
101386.5838199231
103035.1543579555
104814.3956345575
106679.8034339756
108596.9922799645
110537.0926457479
112477.5259101678
114400.1354473514
116290.8551327331
118138.7666611159
119935.6358350207
121675.3406378732
123353.5137623046
124967.185842001
126514.5092736068
127994.5417788339
129407.0605165143
130752.406514406
132031.3650781481
133245.0772748614
134394.9415406062
135482.5536981904
136509.6697119285
137478.1367145864
138389.8697481307
139246.8359973341
140051.0085053646
140804.3586277038
141508.8541277881
142166.4287913658
142778.9770001077
143348.3583771696
143876.3840266331
144364.8095659938
144815.3394604682
145229.6243404738
145609.2556088821
145955.767644836
146270.6406576422
146555.2973416961
146811.1028674264
147039.3694180196
147241.3578586557
147418.2755654491
147571.278384914
147701.474337801
147809.9246771169
147897.6443509388
147965.6042898331
148014.7334315978
148045.9205916467
148060.0147838866
148057.8268752885
148040.1319975304
148007.671241455
147961.1526587346
147901.2524574964
147828.6160016173
147743.8594765416
147647.5715714514
147540.3150286803
147422.6273691065
147295.0218152545
147157.9878350211
147011.9926090574
146857.4823975177
146694.8836348388
146524.6035982658
146347.0307998449
146162.5361559178
145971.4742363592
145774.183719234
145570.9877365031
145362.1954939546
145148.1028007148
144928.9926904152
144705.1346273917
144476.7893744268
144244.2047978667
144007.6257348465
143767.2794953351
143523.4114119437
143276.2242512049
143026.0060363914
142772.9100156132
142517.4010595306
142259.4574205086
142000.1040705714
141738.6891061651
141477.6504143023
141214.7086712134
140952.8023220473
140688.7559447759
102426.719255732
101122.738605644
100350.6388716599
100230.2190183683
100558.0756611234
101301.8810532332
102356.580565579
103665.8583307259
105163.1368210096
106800.6948038714
108534.1834014583
110329.1847565283
112156.4659398594
113992.9748625334
115819.9850530066
117622.8341668417
119389.9913559851
121112.6282623199
122784.0680711828
124399.4154059394
125955.2153477682
127449.1775585062
128879.9522564323
130246.9455729637
131550.1691044962
132790.1052091953
133967.6160614432
135083.8621699593
136140.2149342429
137138.2225086727
138079.5595295368
138965.975858222
139799.2834390437
140581.3269394392
141313.9571705017
141999.0257520249
142638.3676521229
143233.7895999059
143787.0655482533
144299.9279864597
144774.0652279415
145211.1199568901
145612.6830208615
145980.291903513
146315.4336045788
146619.5437074956
146894.0026167219
147140.1376974395
147359.2267969061
147552.4983329643
147721.1295414664
147866.2489228994
147988.9394555917
148090.2386952563
148171.1394041982
148232.5924477908
148275.5080291889
148300.7571056389
148309.1724630681
148301.5503628932
148278.6519661774
148241.2048630457
148189.9046849143
148125.4164051555
148048.3749127296
147959.3863868448
147859.0300561489
147747.8599455422
147626.4055094658
147495.1723718226
147354.6427101452
147205.2768497868
147047.5148901322
146881.7777021115
146708.4670969069
146527.9662279091
146340.6411940308
146146.8424325157
145946.9046034925
145741.1470126649
145529.8756222891
145313.3835410202
145091.9511503589
144865.8462354161
144635.328349382
144400.6450197001
144162.0392519305
143919.740932237
143673.9909171472
143424.9987695852
143173.0300690994
142918.2584715669
142661.0510171802
142401.4493498379
142140.1038984803
141876.5964975063
141612.0357666408
141345.1932445477
141074.0883455782
140802.1977543727
105868.8530659959
104416.0175346794
103477.573305197
103187.9857515476
103342.9544871528
103916.6007277341
104805.3329148487
105955.7373154856
107302.2462821977
108798.1534880129
110399.3412260724
112071.4309640254
113784.9031101045
115516.3066468763
117246.3987977597
118959.9653961965
120644.9090218919
122291.8374958625
123893.5372233671
125444.6077445344
126941.1200521353
128380.3461492265
129760.5408172441
131080.7425021136
132340.6291572714
133540.3896542777
134680.6064331067
135762.1903377783
136786.2988878544
137754.2728996929
138667.5990098802
139527.8677482969
140336.7400097274
141095.9189805663
141807.1342159899
142472.1275139241
143092.6280711926
143670.34763465
144206.9777853377
144704.1735461966
145163.5497893104
145586.6844917804
145975.1104949709
146330.3097588549
146653.7180235838
146946.7256231566
147210.6708659591
147446.8413040068
147656.4785747063
147840.7782510424
148000.8870075857
148137.9044439669
148252.8869201616
148346.8480406363
148420.7581626735
148475.5468028462
148512.1045151811
148531.2843124525
148533.9021412307
148520.7384457234
148492.5397495377
148450.0201029374
148393.8623686486
148324.7194328606
148243.2149259766
148149.9447517352
148045.4786358161
147930.3615922365
147805.1144335899
147670.2347377207
147526.1972820796
147373.4554653197
147212.4427749149
147043.5739993574
146867.2453402264
146683.8347082271
146493.7032774634
146297.196854962
146094.6457305604
145886.3654865534
145672.6587364454
145453.8155786183
145230.1135291432
145001.8182937228
144769.1869080864
144532.4657719148
144291.894842876
144047.7045629622
143800.1254414956
143549.3696892976
143295.6632811889
143039.1942867137
142780.184048198
142518.7617390151
142255.0776604462
141989.1948335125
141720.618238154
141450.4575418468
141172.1833697175
140898.2928880683
109307.7382546859
107707.3236400744
106604.488090981
106148.0370483807
106132.3927899551
106537.8907851584
107262.236963058
108254.8581444288
109451.1897421161
110805.5761580688
112274.1879528304
113822.7597236906
115421.5540281475
117046.7814243977
118678.7412858857
120301.7115139037
121903.0670635662
123472.8872016084
125003.4415139994
126488.8415869294
127924.7023641451
129307.8650628706
130636.1937147379
131908.3733121036
133123.7430961996
134282.1936058418
135384.0439794721
136429.9502295541
137420.8432302315
138357.866923834
139242.3204015129
140075.6223696583
140859.2849853365
141594.8749124667
142283.9923348966
142928.2634420382
143529.3155261256
144088.7650717628
144608.2145651836
145089.2398772665
145533.3843002536
145942.1583533794
146317.0330333552
146659.4350060007
146970.7486565039
147252.3162015991
147505.4319412686
147731.3435396228
147931.2558326212
148106.3295948006
148257.6793663318
148386.3757743374
148493.4481626892
148579.884602082
148646.6320141158
148694.5983592762
148724.653851001
148737.6324577286
148734.3326761636
148715.5188818231
148681.9224735379
148634.2431843717
148573.1505399485
148499.2851328199
148413.2591543587
148315.6577001239
148207.0402218601
148087.9421753236
147958.8755952269
147820.3298178095
147672.7717683522
147516.6475276307
147352.3837821298
147180.3888676002
147001.0529265271
146814.7483061351
146621.8310013857
146422.6419619017
146217.506779229
146006.7365392236
145790.6297353081
145569.4728346056
145343.5397018035
145113.0921688343
144878.3825589523
144639.6524212141
144397.1345208306
144151.0527095346
143901.6237807486
143649.0498209749
143393.5257162728
143135.2276039755
142874.3068359687
142610.9004234273
142345.0151683601
142076.8446878948
141805.6476977906
141533.1769502953
141252.3681855035
140978.6238081765
112742.5153356033
110995.7369047276
109730.3527425393
109109.2133744061
108925.1276930812
109164.4240255851
109725.9507379203
110561.906053292
111608.7160721176
112821.8013664804
114157.6678713381
115582.2238422176
117065.5817948842
118583.668977043
120116.3811419971
121647.536027502
123164.0146387497
124655.4004818323
126113.4726408744
127531.8674348008
128905.7613108039
130231.5842379655
131506.8043195041
132729.7568541646
133899.4618819358
135015.5034768388
136077.931114313
137087.1598223558
138043.8909159995
138949.0606372873
139803.7859661077
140609.317272353
141367.0096988848
142078.2894060345
142744.6308418395
143367.5432110081
143948.5458398353
144489.1589263933
144990.8971954291
145455.2541792253
145883.6980114918
146277.6718234344
146638.5843117125
146967.8040408244
147266.6620752171
147536.452210515
147778.4242241503
147993.7839582968
148183.6976665045
148349.2910758331
148491.6460821769
148611.8027460788
148710.7623831282
148789.4872207012
148848.8998823125
148889.8856366679
148913.2938084848
148919.9390498376
148910.6018013089
148886.0294631785
148846.9375388485
148794.0110231492
148727.9057701844
148649.2495816699
148558.6425945674
148456.6586824989
148343.8468899071
148220.7327860907
148087.8189706526
147945.5860647495
147794.4929740644
147634.9782337506
147467.4614260118
147292.3442299626
147110.01039013
146920.8261932124
146725.1420310045
146523.2937069542
146315.6018611018
146102.3726948773
145883.8997172953
145660.4646448061
145432.3367682317
145199.7735818613
144963.022162158
144722.3186087695
144477.8877513106
144229.9459306122
143978.6960458824
143724.3311877963
143467.0197357253
143206.9346335751
142944.174787372
142678.9149571586
142411.056308214
142140.9940664503
141867.7534313445
141593.8796384872
141311.3334760197
141038.8520943081
116172.3370783618
114280.3573616226
112854.1659514212
112070.4009504835
111719.9496288778
111794.9369173015
112195.200040562
112875.6300312079
113773.625715475
114845.7061024836
116048.7547628402
117348.9007565951
118716.1648832281
120126.249476746
121558.6952707996
122996.9067381965
124427.3049063685
125839.0014285192
127223.31760107
128573.4397658382
129884.1047768365
131151.3472188345
132372.2608953517
133544.8234451069
134667.7380770552
135740.2983102022
136762.2787144827
137733.8465098059
138655.4813731203
139527.9141299304
140352.072278546
141129.035940863
141860.0064228814
142546.2672272432
143189.1618668131
143790.082333442
144350.4408458751
144871.6577369418
145355.1567322603
145802.3493141954
146214.6278250329
146593.3651865266
146939.9056922584
147255.559268288
147541.6030759011
147799.2804923272
148029.7949656414
148234.3101484293
148413.9529245029
148569.8123068717
148702.9366416527
148814.3350274494
148904.9797197068
148975.8058800907
149027.7111883729
149061.5577994343
149078.1734649851
149078.352622764
149062.8568971191
149032.416304403
148987.7302227386
148929.4684151987
148858.272279159
148774.7561712902
148679.507915311
148573.0898113075
148456.0399161096
148328.8735628526
148192.0838112862
148046.1421826277
147891.4989846906
147728.584708174
147557.8114738368
147379.5740370631
147194.249566425
147002.1979165065
146803.7633136672
146599.2758573313
146389.0509178794
146173.3896216938
145952.5804398351
145726.8997961919
145496.6112578899
145261.9664672233
145023.2064852709
144780.5613564887
144534.2484718755
144284.4768855324
144031.4392634328
143775.3212915893
143516.2776904802
143254.4804233241
142990.0111427201
142723.0714004748
142453.543945561
142181.9377099329
141907.2121983881
141632.3618869494
141348.5325663119
141077.1812509342
119596.3628273995
117560.2923741181
115974.9524588
115030.5259963477
114515.7053109303
114428.2175358188
114668.7502151161
115194.8146102934
115944.7552285083
116876.1996897222
117946.4436502662
119121.8808517878
120372.4934828326
121673.8146991542
123005.0718662605
124349.2926711457
125692.4849767846
127023.3200400382
128332.6707916015
129613.3029990835
130859.5373305035
132067.0085075728
133232.4490063756
134353.4967350634
135428.5338338554
136456.5622023422
137437.0908685862
138370.0406031212
139255.6645897155
140094.4887595338
140887.2543515048
141634.8687288018
142338.3750811284
142998.9148622745
143617.7013169938
144196.0055528925
144735.1298842614
145236.3949096104
145701.1324468277
146130.669289643
146526.3200137262
146889.3865559932
147221.148082912
147522.8539759135
147795.7258190856
148040.9560126528
148259.7005630062
148453.079251647
148622.1788044172
148768.0510099779
148891.7094766141
148994.1310607044
149076.2582092584
149138.9985093436
149183.2240394785
149209.772978668
149219.4506440566
149213.0306274754
149191.2553030196
149154.836714844
149104.4573273226
149040.7711478769
148964.4049688666
148875.9593267113
148776.0089937251
148665.1041308048
148543.7714738985
148412.5156617257
148271.8198012834
148122.1461218754
147963.9361309833
147797.6119318953
147623.5777018403
147442.2207602177
147253.9114180143
147059.0031051994
146857.8337298207
146650.7270072004
146437.9921341733
146219.9245395038
145996.8074060176
145768.9120568016
145536.4966828943
145299.8072285959
145059.0784863088
144814.5343499323
144566.3853236582
144314.8345278728
144060.0669566821
143802.2641975281
143541.572652085
143278.1690351132
143012.1264652133
142743.676104222
142472.6846484969
142199.7650568668
141923.7787881566
141648.1278534867
141363.0171187377
141092.5819493584
123013.7524244678
120834.6600447165
119091.7556530882
117988.5464369057
117311.27087941
117063.0889757141
117145.4108842713
117518.2895649754
118120.9815199704
118912.222528143
119849.7532358305
120900.27839997
122033.7779555427
123225.6609713739
124454.8969012531
125704.17370585
126959.1088214777
128207.9765032949
129441.2272717047
130651.2105729809
131831.855311477
132978.4160834841
134087.2635103514
135155.7020754739
136181.8044160652
137164.2830971473
138102.3798700041
138995.7722131832
139844.4906080575
140648.8540630337
141409.4144303109
142126.9079495234
142802.2204475593
143436.3479830207
144030.3713066196
144585.4407974038
145102.7479728254
145583.5114995462
146028.9693422247
146440.3625485607
146818.9270288362
147165.8919375366
147482.4697948989
147769.848697836
148029.1931970599
148261.6430325747
148468.3060526415
148650.2575730703
148808.5428789466
148944.1752222574
149058.1325809342
149151.3589375118
149224.7662804628
149279.2337469403
149315.6067848424
149334.6988482201
149337.2924460819
149324.1398730365
149295.9634353548
149253.4564727522
149197.2841018164
149128.0840078263
149046.4677004047
148953.0215535382
148848.30711059
148732.8619980238
148607.2011698591
148471.8181547854
148327.1855724536
148173.7558646354
148011.9614616917
147842.2158905496
147664.9151464897
147480.4386594496
147289.1492042899
147091.3932222582
146887.5023418634
146677.794252015
146462.5719519014
146242.1245126918
146016.7289936696
145786.6509174359
145552.1429573435
145313.4457064851
145070.7885329296
144824.389900522
144574.4546814085
144321.1810249797
144064.748696254
143805.337511906
143543.089613914
143278.1869926214
143010.7004943348
142740.8853318187
142468.5971744788
142194.5244326255
141917.4294668969
141641.0539620609
141354.6622124082
141084.9650184932
126423.6711701915
124102.592966332
122203.6432837437
120943.4505158626
120105.5715393663
119698.4345846461
119624.0473434686
119844.9258185417
120301.209896757
120952.7464812684
121757.7320808289
122683.2197156339
123699.2368136186
124781.1030443403
125907.56504959
127061.0250730142
128226.7391999558
129392.6010725546
130548.674543706
131686.9147731561
132800.8658982773
133885.4177607793
134936.5938559921
135951.3697822965
136927.5110576524
137863.4473496104
138758.158812641
139611.0790219484
140422.0143972504
141191.079776118
141918.6389099435
142605.2544737161
143251.653481963
143858.6866599736
144427.3014575937
144958.5259189562
145453.4391615007
145913.1567222927
146338.821624466
146731.5874305441
147092.6102645606
147423.0458321458
147724.0382910653
147996.7126515112
148242.1756888149
148461.5138309012
148655.7855459432
148826.0203391478
148973.2209386395
149098.3612235415
149202.3829108567
149286.1963123625
149350.6818801762
149396.6894147299
149425.0372042429
149436.5133441761
149431.8766313432
149411.8574164243
149377.1576739313
149328.4515689911
149266.3861559501
149191.5822684132
149104.6356451368
149006.1178623232
148896.5766936136
148776.5368664805
148646.5012157042
148506.9519092518
148358.3507971709
148201.1400052393
148035.7423137269
147862.5623914038
147681.9879903301
147494.3906110288
147300.1253067721
147099.530946662
146892.9319116983
146680.639250402
146462.949996219
146240.1475253151
146012.5030390771
145780.2760144927
145543.7131811299
145303.0496504381
145058.5094854784
144810.3062016546
144558.6400762733
144303.7055879907
144045.6784222181
143784.7377085543
143521.0233601512
143254.7225769812
142985.9035409125
142714.8409631175
142441.3746641206
142166.2572067589
141888.1391742855
141611.0825296144
141323.4191838891
141054.361973835
129825.2855650372
127363.2331525882
125309.7000947586
123894.2542797236
122897.5632575812
122333.1633200446
122103.5510199545
122173.6334208274
122484.3850115639
122996.7655784867
123669.4498937903
124469.8576258249
125368.0984444913
126339.4562142937
127362.4842216948
128419.3290522665
129494.9299594838
130576.8247413373
131654.707186622
132720.1630074538
133766.3708730311
134787.8657702634
135780.3318099782
136740.4258012446
137665.6146294284
138554.0473169211
139404.4437039134
140215.9977409374
140988.2940080791
141721.2424814418
142415.0186111271
143070.0117430435
143686.7895562886
144266.0567224031
144808.6264737114
145315.4035026115
145787.35316118
146225.4861022891
146630.8496661469
147004.5094686977
147347.5400041162
147661.021643337
147946.0292974526
148203.6241350474
148434.8540640396
148640.7509917422
148822.3227380107
148980.5519675227
149116.3981775789
149230.7951275636
149324.6471533833
149398.8299120487
149454.191737863
149491.5524662422
149511.7023400113
149515.4033961829
149503.3902179363
149476.3704643163
149435.0249183104
149380.008071924
149311.9485538773
149231.4499035501
149139.0916939687
149035.4303049735
148920.9992071328
148796.30973811
148661.8521337029
148518.0967197455
148365.4943226383
148204.4767303689
148035.4567458711
147858.8293993889
147674.9735008282
147484.2524221884
147287.0136553474
147083.5887268623
146874.2947299384
146659.4354911062
146439.3011345115
146214.1687098084
145984.3037452553
145749.9603048584
145511.3796375265
145268.7914587999
145022.4149403681
144772.4590348628
144519.1194652655
144262.587742851
144003.0366777885
143740.6439385837
143475.5485380331
143207.9409676525
142937.887026543
142665.6766451769
142391.1302429289
142115.0559009752
141835.9881900161
141558.2939895279
141269.398053806
141000.9351458951
133217.7583359681
130615.7297755011
128409.0245079211
126839.9912490493
125686.2271731455
124966.2251356568
124582.8533652016
124503.3491679468
124669.4836414732
125043.3091115132
125583.9929372588
126259.3568964788
127039.61289587
127900.0454336683
128819.0608222845
129778.5768459874
130763.2428193993
131760.2735300483
132759.0177044918
133750.7087777418
134728.1738391999
135685.6078955915
136618.368759057
137522.8010892979
138396.0779265923
139236.0739344647
140041.2526032861
140810.5701208937
141543.3911455305
142239.4217396411
142898.6489311637
143521.2888415076
144107.7499132831
144658.5905419829
145174.4884568696
145656.2232000932
146104.6459182128
146520.6622101561
146905.2221388067
147259.3016830422
147583.8926827771
147879.9992351861
148148.626023545
148390.7693549426
148607.4169244315
148799.5448980387
148968.1096641489
149114.046237134
149238.2697300528
149341.6728050967
149425.1218188527
149489.4570110318
149535.493498529
149564.0203298762
149575.7992545239
149571.5657180544
149552.0294622652
149517.8749458717
149469.7611211487
149408.3220371922
149334.1672806916
149247.8826129731
149150.0309729541
149041.1532350616
148921.7682413974
148792.3734586862
148653.4460391217
148505.4440303473
148348.8066833441
148183.9550540848
148011.2920743427
147831.2033394764
147644.0582552043
147450.2110950422
147250.0010406508
147043.7521273964
146831.7743681274
146614.364775161
146391.8068487008
146164.3710657966
145932.3165254008
145695.8914721923
145455.3318367544
145210.8620636124
144962.6964319438
144711.0401783075
144456.0848119181
144198.0185281688
143937.0121769356
143673.241587825
143406.8438661495
143138.0128291038
142866.8088520232
142593.53562112
142317.9907784654
142041.0343159935
141761.082726019
141482.7992394238
141192.7286137106
140924.8459683311
136600.2647337169
133859.2368056226
131500.7383410779
129779.7324931416
128470.5786940981
127596.5992536787
127060.9223801893
126833.0450944976
126855.5033169762
127091.4292802149
127500.4762091417
128050.8952726265
128713.0381336654
129462.2131245086
130276.7112234739
131138.2574621833
132031.2419035257
132942.5817847119
133861.3012422539
134778.3018630077
135686.0777038096
136578.4958444899
137450.5977907825
138298.4256303869
139118.8648993954
139909.52094945
140668.6059635509
141394.8409347399
142087.3714346326
142745.7007570972
143369.629002136
143959.2000300849
144514.6623393595
145036.4264959295
145525.0346624228
145981.1412805665
146405.482086704
146798.8563517676
147162.1158349471
147496.1457467299
147801.8543677128
148080.1686447032
148332.0217830736
148558.3439919844
148760.0619631674
148938.0952583315
149093.3476572229
149226.7055343911
149339.0390032774
149431.1988208413
149504.0122967742
149558.2834429001
149594.7936198794
149614.3002862868
149617.5358122491
149605.2083762391
149578.0022858975
149536.5782425007
149481.5729302868
149413.5994488173
149333.2477769589
149241.0854261777
149137.658164765
149023.490687272
148899.0867716186
148764.9298585511
148621.4838062076
148469.1940277011
148308.4878093631
148139.7748782327
147963.4475303203
147779.8816185587
147589.4375789424
147392.4609786766
147189.2822530561
146980.2170254058
146765.5675423261
146545.6236452069
146320.6622009727
146090.9475162142
145856.7326615715
145618.2599523221
145375.7599003842
145129.4520771804
144879.5455826877
144626.2412889193
144369.7275146054
144110.1889834294
143847.7933824636
143582.7163395283
143315.0905633603
143045.1129188238
142772.8369634335
142498.5780192376
142222.1093250759
141944.340335414
141663.5700783195
141384.7508992155
141093.5753633994
140826.2754439102
139971.9809794928
137092.9209557948
134583.9690112445
132712.5590503784
131249.6578274053
130223.290349848
129536.7520551311
129161.7291681371
129041.4747021119
129140.1932464033
129418.0298235087
129843.6743921425
130387.6443444746
131025.3025505311
131734.8559187827
132497.8675019283
133298.4939580992
134123.3807713594
134961.2513082962
135802.6936732928
136639.8856772466
137466.3803366387
138276.9121074487
139067.2296775484
139833.940052355
140574.3847417568
141286.5275052124
141968.8567771915
142620.3020003372
143240.1662617797
143828.0633117887
144383.8641663636
144907.6577757761
145399.7071553611
145860.4182461444
146290.3198774557
146690.0315816978
147060.2451578464
147401.7132688569
147715.2297036437
148001.6180260891
148261.7268662591
148496.4171358391
148706.5520545038
148892.996048482
149056.6110546101
149198.2476023623
149318.7426114007
149418.9201055865
149499.5880735843
149561.5340982625
149605.5251372693
149632.3080296386
149642.6081455213
149637.1279112946
149616.5475322073
149581.5251221551
149532.6968391945
149470.6764941041
149396.0559402144
149309.4051932971
149211.273008626
149102.1875778952
148982.6570333674
148853.1694050291
148714.1933535399
148566.1790473476
148409.5591999092
148244.7491059461
148072.1470523075
147892.1342741245
147705.0760243241
147511.3228809337
147311.2115646966
147105.0642734629
146893.1885534995
146675.8787692373
146453.4173002085
146226.073838631
145994.1059589055
145757.7607068923
145517.2746002853
145272.8721964302
145024.7682227977
144773.1677112042
144518.2666112806
144260.2490827169
143999.2980255853
143735.5763776455
143469.2591381534
143200.4751410704
142929.4224105975
142656.1471306957
142380.9746480709
142103.652622526
141825.1384389377
141543.6147442512
141264.3169840747
140972.1130129795
140705.4075723693
143332.0799152496
140315.9489722778
137657.8593217903
135637.5696573967
134022.5263764023
132845.3388696017
132009.3688001616
131488.4297871469
131226.4535452016
131188.6990091728
131335.804352099
131636.9076536636
132062.7140261931
132588.6694678724
133192.9241592828
133856.9075222941
134564.5687094443
135302.3049663428
136058.5631384676
136823.6373026046
137589.4026255677
138349.1113719797
139097.2040386879
139829.145553764
140541.2709617644
141230.6629073327
141895.0414866823
142532.6670191729
143142.2552743553
143722.9101644605
144274.0605436505
144795.4053037778
145286.8739662698
145748.5823210746
146180.7998208695
146583.9288334538
146958.472203297
147305.0137511922
147624.2060167665
147916.750385264
148183.3851130574
148424.8796881069
148642.0215278859
148835.6058384434
149006.4341125382
149155.3097918506
149283.0291115984
149390.3787358189
149478.1359191089
149547.0649624142
149597.9128257344
149631.4086733123
149648.2641108169
149649.1717542078
149634.803539146
149605.8110944473
149562.8257532475
149506.4585969968
149437.2998757275
149355.9194571339
149262.8669252876
149158.6718885759
149043.844465596
148918.8758711116
148784.2383401305
148640.3855488425
148487.753280118
148326.7606896596
148157.8105788623
147981.2897821761
147797.5687149902
147607.0021583584
147409.9304778724
147206.6806596458
146997.565849874
146782.8852145349
146562.925252846
146337.961092455
146108.2555379804
145874.0592641753
145635.6127582464
145393.1469809783
145146.8808766395
144897.0232622128
144643.7745248976
144387.3271669421
144127.8601024137
143865.5534357719
143600.5667520953
143333.072547612
143063.1959371579
142791.1353754253
142516.9291859081
142240.9119334309
141962.8049542306
141683.6124410413
141401.4017405553
141121.6849774439
140828.5329391558
140562.4383270287
146679.7507531707
143527.4964691045
140721.5623961787
138553.8864596597
136788.2696115593
135461.8007685408
134477.8199310765
133812.2022313953
133409.5206280417
133236.0655115591
133252.9671759105
133429.8222617228
133737.5415164956
134151.6789840895
134650.3517354965
135214.8805736594
135829.0359643403
136478.9911101643
137152.9347601507
137840.8848029963
138534.4310745227
139226.5396881415
139911.3683084248
140584.1064992272
141240.8248399111
141878.353986311
142494.1751044223
143086.3238979506
143653.3056516682
144194.0268217531
144707.7325382318
145193.951028629
145652.4528300813
146083.2063220124
146486.3445535535
146862.1432892048
147210.9879209132
147533.3535664567
147829.7922411679
148100.9122573935
148347.3654732177
148569.8413079722
148769.0530016995
148945.7268964239
149100.6005747958
149234.4182405009
149347.9211372954
149441.8447323485
149516.9186006068
149573.8626273717
149613.3824737451
149636.1688982644
149642.8975955426
149634.2275651044
149610.7994702
149573.2358253332
149522.1406732965
149458.0995271439
149381.6787699187
149293.4258899968
149193.8693772819
149083.519005343
148962.8662679799
148832.3848958369
148692.5308142837
148543.742535643
148386.4415888978
148221.0334779279
148047.9078311365
147867.4390359462
147679.9860332791
147485.89308001
147285.4906437835
147079.0961657753
146867.0135723297
146649.533317497
146426.9336429585
146199.4818118184
145967.4334861753
145731.0328814498
145490.5138548275
145246.100823157
144998.0074802196
144746.4377388673
144491.5861900314
144233.640858202
143972.7770508684
143709.1704507254
143442.9771651164
143174.3669213503
142903.4604924305
142630.4561598612
142355.3841086129
142078.58781494
141799.7620709
141519.9571211126
141237.1266637052
140957.0525622497
140663.0358202678
140397.5717700792
150014.1729660791
146726.7454075296
143774.240763889
141460.643859664
139545.9947796775
138071.7581637929
136941.1788919851
136132.1279612394
135589.7786453632
135281.4303859459
135168.7027309983
135221.6616636709
135411.4349252269
135713.703416513
136106.5779709275
136571.2962093831
137091.4723028001
137653.0773544412
138244.0626822821
138854.1886615746
139474.7757959958
140098.5172041107
140719.2992501082
141332.0458354642
141932.570559135
142517.4586153901
143083.9578021317
143629.8827250017