/*--------------------------------*- C++ -*----------------------------------*\
| =========                 |                                                 |
| \\      /  F ield         | foam-extend: Open Source CFD                    |
|  \\    /   O peration     | Version:     4.1                                |
|   \\  /    A nd           | Web:         http://www.foam-extend.org         |
|    \\/     M anipulation  |                                                 |
\*---------------------------------------------------------------------------*/
FoamFile
{
    version     2.0;
    format      ascii;
    class       volScalarField;
    location    "1";
    object      sigmaHyd;
}
// * * * * * * * * * * * * * * * * * * * * * * * * * * * * * * * * * * * * * //

dimensions      [1 -1 -2 0 0 0 0];

internalField   nonuniform List<scalar> 
100000
(
-47062.21213503588
-46941.77340054976
-46964.98224339214
-46914.80460151366
-46904.09083630081
-46874.08055822291
-46855.28415504358
-46831.7745185911
-46811.79870373661
-46791.00921959399
-46771.61984617681
-46752.43791851408
-46734.04469234402
-46716.10412526973
-46698.74384729637
-46681.86588527761
-46665.48998374151
-46649.57586443473
-46634.10833047792
-46619.07149990747
-46604.44822225442
-46590.216438675
-46576.36513076762
-46562.87896090126
-46549.74104465152
-46536.93796177778
-46524.45960722228
-46512.28886772307
-46500.41629049536
-46488.83354353931
-46477.52259502604
-46466.47792106193
-46455.69201188215
-46445.14739543848
-46434.83944590346
-46424.76262912969
-46414.90216798398
-46405.25231767743
-46395.80877133441
-46386.56005199738
-46377.49849190797
-46368.6208283306
-46359.91955733047
-46351.38550797857
-46343.01393788726
-46334.80152904055
-46326.7410815754
-46318.8252658041
-46311.05025702936
-46303.41251768359
-46295.90605623759
-46288.52532413261
-46281.26650732183
-46274.12594896797
-46267.09895136805
-46260.18072630529
-46253.3676148032
-46246.6567737951
-46240.04462897879
-46233.52704473817
-46227.10012406254
-46220.76079098332
-46214.50635404043
-46208.33402008317
-46202.24053653111
-46196.22259200114
-46190.27716355295
-46184.40177257433
-46178.59425569697
-46172.85250394397
-46167.1738424358
-46161.55532300235
-46155.99456271743
-46150.48981774324
-46145.03914158917
-46139.64006727417
-46134.29036863827
-46128.98834177259
-46123.73218528156
-46118.52000606713
-46113.35059605684
-46108.22273451222
-46103.13479752279
-46098.08511215961
-46093.07366349872
-46088.09955845377
-46083.16523723317
-46078.26993780091
-46073.42479880475
-46068.62128868874
-46063.90393439256
-46059.22416822911
-46054.76601455832
-46050.26600945784
-46046.51944274174
-46042.18037619921
-46040.82197538501
-46035.72204480969
-46043.47015167435
-46015.62818335206
-48766.83665600586
-48604.72035982602
-48599.04315945947
-48514.77117731365
-48474.05372648425
-48413.24240835384
-48365.34335395512
-48313.0719271554
-48265.33680331632
-48217.41315026014
-48171.66869573687
-48126.78887027781
-48083.37369124214
-48041.04736879301
-47999.93001991976
-47959.88849164176
-47920.92482743211
-47882.98414921717
-47846.0326091059
-47810.0285271742
-47774.94539080319
-47740.7432251473
-47707.39120116901
-47674.86155334422
-47643.12473651167
-47612.14855475482
-47581.91259149135
-47552.3891719192
-47523.54817422533
-47495.37629492833
-47467.84631754203
-47440.9311125711
-47414.61982732383
-47388.88829247143
-47363.7125417295
-47339.0816305163
-47314.97650939884
-47291.37612500037
-47268.26714943856
-47245.63503742114
-47223.46244215826
-47201.73480517237
-47180.43977096347
-47159.56348543018
-47139.09146884895
-47119.01219006674
-47099.31464260542
-47079.98605313534
-47061.01445383494
-47042.39017702213
-47024.10293754583
-47006.14193579227
-46988.49740471501
-46971.16030150515
-46954.12149260424
-46937.37187608155
-46920.90287932014
-46904.70680429717
-46888.77582946531
-46873.10185740418
-46857.6770294023
-46842.49424565554
-46827.54678249291
-46812.82810426184
-46798.33156528914
-46784.05052261065
-46769.97859706514
-46756.11003116162
-46742.43934440272
-46728.96121911422
-46715.67016939475
-46702.56073296335
-46689.62775187143
-46676.86652165451
-46664.27242794829
-46651.84078549191
-46639.56711783118
-46627.44732823581
-46615.4774369277
-46603.65346792225
-46591.9719465005
-46580.4295632209
-46569.02343135891
-46557.74985803415
-46546.60743797286
-46535.59232771338
-46524.70743149485
-46513.94459986909
-46503.32166436986
-46492.80942016315
-46482.47939312563
-46472.21416620765
-46462.29749683813
-46452.23707428355
-46443.1701711907
-46433.0248735023
-46426.44770805992
-46414.620981889
-46416.98928428636
-46377.44116348898
-50470.5977541675
-50266.83805902736
-50232.29436312628
-50113.95243366017
-50043.2501361063
-49951.65191000727
-49874.66595922796
-49793.65626154008
-49718.17901441695
-49643.13607346331
-49571.04837709512
-49500.48548295001
-49432.06867927354
-49365.3700186436
-49300.50440159946
-49237.3147898747
-49175.7819225496
-49115.82417174461
-49057.39909635548
-49000.44281136776
-48944.9099559024
-48890.74717999879
-48837.90728757432
-48786.34392781406
-48736.01815708817
-48686.88222063454
-48638.89546867218
-48592.02764236672
-48546.23329982469
-48501.47835866266
-48457.73483498851
-48414.9634861294
-48373.13441057643
-48332.22021075676
-48292.18890560681
-48253.01321425776
-48214.66683693975
-48177.12427219781
-48140.36071460799
-48104.35079935567
-48069.07203681434
-48034.50354740101
-48000.62306291974
-47967.40910415043
-47934.84239328622
-47902.90470039553
-47871.57701564692
-47840.84058610509
-47810.67827723349
-47781.07447063597
-47752.01286334488
-47723.47715646043
-47695.45261965102
-47667.92521275907
-47640.88064301347
-47614.30503171393
-47588.18525709747
-47562.50901784735
-47537.26417705106
-47512.4386647741
-47488.02062825581
-47463.99896487845
-47440.36311524537
-47417.10281451117
-47394.20787054268
-47371.66831099414
-47349.4744337687
-47327.61715312103
-47306.08780640221
-47284.8780590208
-47263.97941933184
-47243.38350392765
-47223.08243388404
-47203.06896417429
-47183.33594337835
-47163.87612644908
-47144.68259354076
-47125.74899742748
-47107.06922662019
-47088.63716776945
-47070.44746521818
-47052.49493361139
-47034.77530871894
-47017.28328896091
-47000.01756195141
-46982.97192417129
-46966.15194730104
-46949.54354528813
-46933.17737617185
-46917.00094269698
-46901.13440390423
-46885.36687700306
-46870.16127487379
-46854.65366623072
-46840.64363543248
-46824.63694345554
-46813.6899928071
-46793.81176200259
-46792.77579095187
-46736.97507823289
-52173.06289172171
-51927.71845156977
-51864.3357650106
-51711.95749436481
-51611.29758288814
-51488.93765321754
-51382.88636822793
-51273.1646208517
-51169.96839957027
-51067.82835216192
-50969.42190161752
-50873.19591621598
-50779.79563346721
-50688.74775747234
-50600.15477640869
-50513.83145396474
-50429.74767498424
-50347.7940500193
-50267.91163140225
-50190.02047191213
-50114.05594427995
-50039.94689381379
-49967.63592282798
-49897.05642410384
-49828.15213148986
-49760.87187957469
-49695.15364044951
-49630.94997451033
-49568.21452945603
-49506.89561757906
-49446.94822112744
-49388.33034206854
-49331.00061579564
-49274.91541029507
-49220.03613802495
-49166.32924087971
-49113.75572081187
-49062.27955019215
-49011.870530736
-48962.49574857555
-48914.12209612356
-48866.72098981163
-48820.26481549782
-48774.72456843931
-48730.07266637404
-48686.28473605116
-48643.33602267019
-48601.20128917925
-48559.85707049373
-48519.28199077312
-48479.454438954
-48440.35260369992
-48401.95623300692
-48364.24636665831
-48327.20396492187
-48290.81025789809
-48255.04745607657
-48219.89885030739
-48185.34792881177
-48151.37841789673
-48117.97451189856
-48085.12122230975
-48052.80412490771
-48021.00919386638
-47989.72257782357
-47958.93088044898
-47928.62121282139
-47898.78134137615
-47869.39939913486
-47840.46397881117
-47811.96364302442
-47783.88711107646
-47756.22365443667
-47728.96338210609
-47702.09663255858
-47675.61367766345
-47649.50512236251
-47623.76220207493
-47598.37644168476
-47573.3395279976
-47548.64404686935
-47524.28267315901
-47500.24900168692
-47476.53513445782
-47453.13780306338
-47430.04767451429
-47407.26946394429
-47384.783123285
-47362.62095712204
-47340.71518816656
-47319.19742109635
-47297.81385009417
-47277.07397733312
-47255.99172575396
-47236.52452477971
-47214.8449091827
-47198.46944943532
-47172.59416112227
-47166.10558140183
-47103.3178888724
-53873.84961326879
-53586.96439771655
-53494.772300184
-53308.39148321957
-53177.81526125564
-53024.72804850692
-52889.63551947859
-52751.23359260235
-52620.35469390931
-52491.14454477819
-52366.44385548815
-52244.58409539974
-52126.22905073562
-52010.85582488329
-51898.56236130865
-51789.13001851725
-51682.51713880194
-51578.59207741965
-51477.27489445318
-51378.46884234001
-51282.0965320633
-51188.06294511102
-51096.29654036168
-51006.72426231566
-50919.2639137814
-50833.85158899194
-50750.42227626698
-50668.90618385143
-50589.24222214766
-50511.37544622549
-50435.24624123239
-50360.79667501013
-50287.97885228109
-50216.74111835218
-50147.03136910637
-50078.8055300991
-50012.01845777646
-49946.62548401205
-49882.5854191016
-49819.85748781237
-49758.4023465938
-49698.18312714944
-49639.16389848052
-49581.30921086956
-49524.58491896361
-49468.95961313837
-49414.40188566021
-49360.88039953505
-49308.36595678303
-49256.83121667361
-49206.24875507601
-49156.59155608142
-49107.83418168022
-49059.9524015325
-49012.92230480336
-48966.72051666352
-48921.324570512
-48876.71318906357
-48832.86558089142
-48789.76135189083
-48747.38071278371
-48705.70481132241
-48664.71538973471
-48624.39470632282
-48584.7253803184
-48545.69054036554
-48507.27383622772
-48469.45975581651
-48432.23333897119
-48395.58014748261
-48359.48578224979
-48323.93614456406
-48288.91775309305
-48254.41793376711
-48220.42435252489
-48186.92482443637
-48153.90761179244
-48121.3615752425
-48089.27581469466
-48057.63961055396
-48026.44346147998
-47995.67810680043
-47965.33546614876
-47935.40534997145
-47905.88267296285
-47876.75476832044
-47848.0254617225
-47819.66935519179
-47791.72172414789
-47764.10093299743
-47736.95349550675
-47709.98350732048
-47683.75751832154
-47657.15697195138
-47632.33778785949
-47605.07100417294
-47583.51342361233
-47551.72014500804
-47540.43863336442
-47470.95823242292
-55572.54179908053
-55244.1706533332
-55123.21313846218
-54902.8690976439
-54742.41237704291
-54558.6477254466
-54394.55254400768
-54227.50132447386
-54068.97653679529
-53912.73706471099
-53761.77675270993
-53614.3128827074
-53471.03688772271
-53331.37060118371
-53195.40811285811
-53062.89891556624
-52933.78423379671
-52807.9148958451
-52685.19433333015
-52565.4992650913
-52448.74149662576
-52334.81467059837
-52223.61864131741
-52115.07147730215
-52009.08365339947
-51905.56579330911
-51804.44141818708
-51705.63573486032
-51609.06993662909
-51514.67362941954
-51422.3803994942
-51332.12243022818
-51243.83768319539
-51157.46400512436
-51072.94216372894
-50990.21824983651
-50909.23587182497
-50829.94224401694
-50752.28897596787
-50676.226252253
-50601.70606422536
-50528.68449201008
-50457.11849747822
-50386.96532458595
-50318.18370814294
-50250.73564603304
-50184.58363680662
-50119.6899689675
-50056.01924393201
-49993.5385841403
-49932.21504106621
-49872.01597448359
-49812.91071149456
-49754.87008754895
-49697.86524991293
-49641.86800516101
-49586.85128352105
-49532.78933229105
-49479.65709425973
-49427.43005617309
-49376.08429663597
-49325.5969560626
-49275.94602379783
-49227.11014503049
-49179.06840295515
-49131.80055158231
-49085.2869563356
-49039.50878704339
-48994.44780980337
-48950.08650304574
-48906.40754241352
-48863.39399210585
-48821.02964561721
-48779.29917730864
-48738.18752235052
-48697.6797944146
-48657.761756827
-48618.42001484999
-48579.64138993914
-48541.41267833913
-48503.7217535154
-48466.55681330345
-48429.90765520948
-48393.76198271455
-48358.1128028219
-48322.94453317711
-48288.25885196875
-48254.02548413194
-48220.27877232603
-48186.928194533
-48154.1246963897
-48121.55174920686
-48089.79850889144
-48057.69349739122
-48027.47199697288
-47994.75854068941
-47967.96355499393
-47930.72870488944
-47914.57358815902
-47839.39679121869
-57268.72792216164
-56898.93730016946
-56749.25864697427
-56495.00574055761
-56304.71224231931
-56090.3204764518
-55897.27039715957
-55701.61273225372
-55515.48267272148
-55332.2565516898
-55155.08075016688
-54982.05132657856
-54813.89219243863
-54649.9707588242
-54490.37345303952
-54334.82436925475
-54183.24643119131
-54035.46301915083
-53891.36934526254
-53750.82393368598
-53613.70947091781
-53479.9140553712
-53349.32477428736
-53221.83281032794
-53097.3394120606
-52975.74667070971
-52856.95843787946
-52740.8858029347
-52627.44205150737
-52516.54478589464
-52408.11301739285
-52302.06819022203
-52198.33995027771
-52096.8553317241
-51997.54352786119
-51900.34198240923
-51805.18619261766
-51712.01371618127
-51620.76717919682
-51531.38922869064
-51443.82408750783
-51358.019917892
-51273.92610161292
-51191.49297729607
-51110.67267457856
-51031.42016283901
-50953.69136940684
-50877.44277422377
-50802.63301208716
-50729.22313623392
-50657.1746333155
-50586.44960306869
-50517.01212267626
-50448.82794174163
-50381.86330600418
-50316.08522012621
-50251.46204777966
-50187.9636465815
-50125.56063993541
-50064.22438761507
-50003.92704881042
-49944.64182670756
-49886.34276711208
-49829.00476512984
-49772.60339278391
-49717.11498240381
-49662.51657538279
-49608.78614668587
-49555.90234203604
-49503.84449595257
-49452.59223544821
-49402.12573088098
-49352.42602455321
-49303.47515766369
-49255.25548938016
-49207.74949553555
-49160.94025504388
-49114.81183785953
-49069.34889521677
-49024.53618960684
-48980.35943639608
-48936.80422765323
-48893.8576805937
-48851.50475342659
-48809.73639811521
-48768.53451692779
-48727.8993560443
-48687.79685372495
-48648.26089402118
-48609.19351675629
-48570.75030893144
-48532.5970400684
-48495.34412833874
-48457.77178765669
-48422.19332506449
-48384.09109197814
-48352.12690498008
-48309.51501493425
-48288.56083065074
-48207.7675674839
-58961.99359303633
-58550.8595203127
-58372.51926228186
-58084.41664081891
-57864.33432941163
-57619.37169039797
-57397.42504284432
-57173.21167919169
-56959.52327015008
-56749.35633905183
-56546.01470693113
-56347.46605313758
-56154.46567748824
-55966.33439934902
-55783.14639246129
-55604.59348015604
-55430.59277614648
-55260.94126000851
-55095.50736901189
-54934.14520389796
-54776.71837224423
-54623.08809580823
-54473.13388119073
-54326.73472806768
-54183.77123997167
-54044.1316704676
-53907.71001937534
-53774.40393623531
-53644.11202572699
-53516.74050793119
-53392.19893139989
-53270.39688007554
-53151.25192518056
-53034.68196465541
-52920.60708694612
-52808.95427651335
-52699.64970960622
-52592.62268701755
-52487.80728128179
-52385.13777806407
-52284.55036508894
-52185.98574493601
-52089.3862348406
-51994.69476667082
-51901.85648330868
-51810.81998533538
-51721.53481928566
-51633.95115415198
-51548.02169441196
-51463.70173854295
-51380.94718166789
-51299.71477420101
-51219.96335036286
-51141.6535185525
-51064.74668068111
-50989.20516550414
-50914.99267599623
-50842.0745571089
-50770.4171616612
-50699.9876743823
-50630.75421577091
-50562.68618559402
-50495.75396035327
-50429.92870821276
-50365.18234128536
-50301.48772381903
-50238.81857070883
-50177.14956280342
-50116.45622782785
-50056.71494990279
-49997.90243742022
-49939.99589335145
-49882.97341854423
-49826.81428986441
-49771.49833527819
-49717.00561452027
-49663.31667308163
-49610.41281898914
-49558.27595928391
-49506.88843215811
-49456.23394319548
-49406.29621095709
-49357.06028676783
-49308.50854494155
-49260.62929829262
-49213.40156135692
-49166.82344961994
-49120.85765088009
-49075.53711709026
-49030.75869330817
-48986.68014057395
-48942.95680551503
-48900.21290223031
-48857.19848766945
-48816.27869672046
-48772.84228918073
-48735.72984783304
-48687.83463012248
-48662.08327381798
-48575.80055831811
-60651.93117900169
-60199.5303922484
-59992.59016127686
-59670.71643182002
-59420.90156898003
-59145.42599204729
-58894.64306024609
-58641.93560195826
-58400.74778494741
-58163.69229354549
-57934.23590244272
-57710.22456302959
-57492.43397869888
-57280.13643574704
-57073.40835238171
-56871.90344130864
-56675.51762882445
-56484.04150282652
-56297.31865371449
-56115.17773812473
-55937.47506668028
-55764.05523109129
-55594.77657144955
-55429.50452161802
-55268.10812527539
-55110.46078460687
-54956.44101962011
-54805.93439265382
-54658.82889908156
-54515.0177379084
-54374.39795148699
-54236.86937051165
-54102.33928780986
-53970.71457296586
-53841.90552486337
-53715.83005885722
-53592.40530002622
-53471.55166869295
-53353.19438132517
-53237.25977873436
-53123.67656999749
-53012.3774457909
-52903.29721691617
-52796.37201398181
-52691.54013513758
-52588.74342088003
-52487.92506260441
-52389.02908498938
-52292.00221793115
-52196.79403409957
-52103.35484049454
-52011.63593833146
-51921.5910009716
-51833.17563133779
-51746.34626046036
-51661.06049567956
-51577.27760453778
-51494.95852835793
-51414.06524544171
-51334.56074837591
-51256.409136331
-51179.57584933656
-51104.02749621481
-51029.73168553364
-50956.65685685606
-50884.77238442688
-50814.04860880244
-50744.45691197833
-50675.96958391509
-50608.55990749822
-50542.20173373872
-50476.86952759257
-50412.53858972573
-50349.18526549117
-50286.78654350262
-50225.31994076591
-50164.76383376285
-50105.09736348283
-50046.29994703666
-49988.35108123026
-49931.23169705573
-49874.92304487721
-49819.40820173147
-49764.66760601724
-49710.68764831217
-49657.4449138115
-49604.93559708819
-49553.11915845581
-49502.02762259533
-49451.55361893962
-49401.85663675824
-49352.58249071194
-49304.36778799442
-49255.93618219274
-49209.69946959452
-49160.95884518229
-49118.72133583461
-49065.57292821903
-49035.02763572884
-48943.30883152579
-62338.13385182046
-61844.55701099038
-61609.07929568458
-61253.51773657658
-60974.03931078851
-60668.11655933682
-60388.5651578649
-60107.42538814284
-59838.80071715141
-59574.92298563095
-59319.40888962093
-59069.98799344325
-58827.46963694408
-58591.06407328814
-58360.8407242268
-58136.43835827196
-57917.72510648088
-57704.4677844625
-57496.50181726809
-57293.63448475241
-57095.70167102679
-56902.5338469931
-56713.97531698927
-56529.87516597159
-56350.0866510241
-56174.47048658457
-56002.89313346783
-55835.22591075519
-55671.34386408635
-55511.12951039097
-55354.4686252466
-55201.24938879168
-55051.36848397427
-54904.72289004248
-54761.21327313572
-54620.74792301351
-54483.23453088785
-54348.58506877667
-54216.71656821271
-54087.54681346179
-53960.99666037632
-53836.99142064584
-53715.45852946131
-53596.32700129533
-53479.52833050823
-53364.99767594739
-53252.67190006719
-53142.48900558488
-53034.38972091843
-52928.31773613987
-52824.21788351222
-52722.03617497292
-52621.72099470085
-52523.22288820276
-52426.49344865178
-52331.48548196204
-52238.15362229416
-52146.45448641969
-52056.34590185124
-51967.78669992101
-51880.73691356682
-51795.15806950918
-51711.01295641485
-51628.26544531203
-51546.88046157751
-51466.82403255593
-51388.0632353578
-51310.56623673455
-51234.30216284981
-51159.24113475958
-51085.35392382856
-51012.61214200237
-50940.98849310047
-50870.45674512599
-50800.9911092647
-50732.56613209392
-50665.15737977798
-50598.74163579202
-50533.29634881067
-50468.79906307443
-50405.2284470862
-50342.56312024119
-50280.78349795199
-50219.86764007237
-50159.79989455065
-50100.55452056863
-50042.12602625057
-49984.4714922885
-49927.62142547674
-49871.46520725583
-49816.16395625765
-49761.35572749149
-49707.68740260769
-49653.85966623259
-49602.32493847993
-49548.3067439497
-49500.96006668776
-49442.59035017596
-49407.25111271814
-49310.15860937796
-64020.19478896363
-63485.54436205795
-63221.59125560727
-62832.43292470494
-62523.37327079631
-62187.07277767979
-61878.82604231824
-61569.33192638044
-61273.33358000198
-60982.6971020831
-60701.19849076094
-60426.43203378659
-60159.23966291427
-59898.79219055679
-59645.13741283486
-59397.88850427623
-59156.90415132152
-58921.92504000821
-58692.76769704945
-58469.22349697959
-58251.11237987535
-58038.24761915284
-57830.45669332773
-57627.57456621238
-57429.44109626622
-57235.90197228367
-57046.80997970414
-56862.02467272057
-56681.40881806912
-56504.83253787248
-56332.17015677071
-56163.29917518852
-55998.10596738863
-55836.47727231339
-55678.30357330029
-55523.48399068112
-55371.91744858189
-55223.50684315299
-55078.16071889459
-54935.78887306707
-54796.30430869769
-54659.62476641458
-54525.67036660815
-54394.36297936111
-54265.62731156697
-54139.39203096592
-54015.58760406297
-53894.14584683425
-53775.00162669853
-53658.09289719181
-53543.35883975839
-53430.74014638444
-53320.1801056796
-53211.62423077116
-53105.01921416289
-53000.31318106831
-52897.45618843812
-52796.40033381509
-52697.09915426991
-52599.50746452204
-52503.58138590883
-52409.27855771309
-52316.55800132921
-52225.37991634733
-52135.70561788647
-52047.49762413125
-51960.7196551161
-51875.33667659033
-51791.31478452138
-51708.62113764814
-51627.22347086656
-51547.09026577776
-51468.19130144242
-51390.4978150121
-51313.98176228716
-51238.61531212937
-51164.37132538564
-51091.22366437542
-51019.14698385642
-50948.11643511191
-50878.10876066043
-50809.10072240984
-50741.07059446095
-50673.99407012353
-50607.8535379438
-50542.62093874917
-50478.28865508392
-50414.81175817489
-50352.2196785015
-50290.39789429147
-50229.50981885866
-50169.18549973662
-50110.08215298642
-50050.87891887961
-49994.06518526872
-49934.79175323313
-49882.35092212298
-49818.78359940787
-49778.65026746902
-49676.23895296489
-65697.6990606515
-65122.09842192631
-64829.74058368553
-64407.06971313611
-64068.51984944884
-63701.93085380613
-63365.05907180331
-63027.29040084835
-62704.00351736844
-62386.67829345111
-62079.25972115521
-61779.22528561925
-61487.42858762448
-61202.99869912071
-60925.97919695269
-60655.95006131498
-60392.75383202142
-60136.11149949803
-59885.82268861056
-59641.65996153756
-59403.42520729781
-59170.91663944958
-58943.9472730839
-58722.33564908834
-58505.90686613357
-58294.49377889872
-58087.93595405273
-57886.0798175001
-57688.77579209831
-57495.8823328052
-57307.26270676388
-57122.78338047455
-56942.31972074506
-56765.74874447202
-56592.95144192564
-56423.81713152179
-56258.2357945131
-56096.10171147656
-55937.31489264435
-55781.77713091031
-55629.3936620403
-55480.07450765476
-55333.73250904757
-55190.28263757188
-55049.64273726877
-54911.73483466922
-54776.48317889236
-54643.81348685673
-54513.65456752887
-54385.93868243501
-54260.59959842076
-54137.57261917535
-54016.79573696424
-53898.20947815017
-53781.75576883504
-53667.37807866521
-53555.02196392643
-53444.63513838905
-53336.16676145343
-53229.5673837795
-53124.78913522466
-53021.7858642544
-52920.51289151195
-52820.92682918798
-52722.98551071391
-52626.64803358501
-52531.87473047361
-52438.62722469778
-52346.86840819774
-52256.56247780177
-52167.67446396418
-52080.17010059914
-51994.01613208128
-51909.18063191818
-51825.63274144253
-51743.34232894435
-51662.28015287677
-51582.41788076768
-51503.72777794817
-51426.18237411311
-51349.75575878852
-51274.42240363875
-51200.15862305254
-51126.93787209534
-51054.74045871638
-50983.53662342954
-50913.31695517301
-50844.03366752364
-50775.71625930179
-50708.24600381238
-50641.78785188965
-50575.96563854512
-50511.44432369163
-50446.88450325258
-50384.80897034075
-50320.30119057962
-50262.78068444842
-50194.04061301997
-50149.11536660595
-50041.44218871222
-67370.23744636971
-66753.81410332494
-66433.14446829085
-65977.05591165287
-65609.09860006954
-65212.31707070795
-64846.91156903554
-64480.94666024247
-64130.45155077624
-63786.52673964953
-63453.2640117052
-63128.03194930342
-62811.70912146992
-62503.37111982568
-62203.05477271972
-61910.31296146257
-61624.9726520159
-61346.73322893552
-61075.37544421644
-60810.65517375553
-60552.35828439832
-60300.26539268392
-60054.17414690992
-59813.88890387423
-59579.22025321441
-59349.98708612613
-59126.01561455677
-58907.13958915087
-58693.19758334967
-58484.03619085029
-58279.50695350675
-58079.46582673921
-57883.77770454293
-57692.30929277866
-57504.93210582471
-57321.52597210951
-57141.97174009562
-56966.15520790411
-56793.96799151528
-56625.30367993129
-56460.05977183957
-56298.13879790122
-56139.44621902017
-55983.89001069625
-55831.38139213782
-55681.83581303676
-55535.17108273
-55391.30688112974
-55250.16617679461
-55111.67546393339
-54975.76297780085
-54842.35876960823
-54711.39564401049
-54582.80900109029
-54456.53588262991
-54332.51514717499
-54210.68789032075
-54090.9975144966
-53973.38900089703
-53857.80877573216
-53744.20489365133
-53632.52726957437
-53522.72742436707
-53414.75831666714
-53308.57429783984
-53204.13114792589
-53101.38597282946
-53000.29717609564
-52900.82440122684
-52802.92857888501
-52706.57169536902
-52611.71687013286
-52518.32851003695
-52426.37213417984
-52335.81391659917
-52246.62072572288
-52158.76063101118
-52072.20289053558
-51986.91763186968
-51902.87543164599
-51820.04819918683
-51738.40795753463
-51657.92894133395
-51578.58273111
-51500.34717819123
-51423.19025878884
-51347.10167380278
-51272.03080216613
-51198.00605713775
-51124.90677607217
-51052.89728302012
-50981.59636061436
-50911.67584775742
-50841.7785902954
-50774.45848828118
-50704.73600394943
-50642.1495812338
-50568.2603937446
-50518.54577961844
-50405.66674144495
-69037.40911739228
-68380.29817307288
-68031.40659709848
-67542.01222488182
-67144.74546369552
-66717.86381724328
-66324.01631589854
-65929.95254786927
-65552.3340925318
-65181.89427355484
-64822.87607312592
-64472.52816284622
-64131.7569737533
-63799.58857541303
-63476.0523170039
-63160.67278722887
-62853.25934884336
-62553.49212130433
-62261.13495494005
-61975.92458198973
-61697.63034104381
-61426.01677260258
-61160.86612469062
-60901.96809934716
-60649.11872797957
-60402.12305269416
-60160.79455858615
-59924.95420837457
-59694.42805857369
-59469.05130064648
-59248.66417493125
-59033.11169160259
-58822.24846880716
-58615.93101424295
-58414.02112476376
-58216.38942915486
-58022.9077627618
-57833.45317749142
-57647.90898102648
-57466.16079153679
-57288.0982175628
-57113.61621230609
-56942.61310703702
-56774.98990601904
-56610.6509647036
-56449.5052342054
-56291.46430219792
-56136.44174541792
-55984.35460957323
-55835.12374157437
-55688.67190929221
-55544.92383367825
-55403.80719969163
-55265.25250044475
-55129.19193586394
-54995.55960340408
-54864.29199167743
-54735.32810056012
-54608.60871861446
-54484.07628365198
-54361.67493746631
-54241.35076169413
-54123.05153373162
-54006.72655862873
-53892.32657326507
-53779.80385238505
-53669.11220463091
-53560.20697445574
-53453.04489223944
-53347.58391084809
-53243.78283166197
-53141.6015398656
-53041.00152105567
-52941.94589092327
-52844.39860083166
-52748.32410213869
-52653.68790793127
-52560.45668875813
-52468.59792531844
-52378.07978655718
-52288.87220935959
-52200.94510303574
-52114.2702341769
-52028.81739152105
-51944.56297283743
-51861.47246491331
-51779.53347247434
-51698.69463672641
-51618.9817236071
-51540.27237979766
-51462.73120346596
-51385.97124077083
-51310.67093299363
-51235.456209895
-51162.90959742258
-51087.9927031778
-51020.35443318331
-50941.34037902034
-50886.83978246048
-50768.81151382781
-70698.80310159763
-70001.15274391383
-69624.14361078694
-69101.55106043883
-68675.07972507637
-68218.21133683728
-67796.01782248568
-67373.95094031589
-66969.30624246292
-66572.44406711993
-66187.76067842542
-65812.38467752688
-65447.25087670756
-65091.33652424823
-64744.66096294573
-64406.72261469858
-64077.31449368055
-63756.09516002941
-63442.81151149336
-63137.18237708983
-62838.96083459372
-62547.89531887124
-62263.7520910561
-61986.30608195643
-61715.33965698179
-61450.6439672242
-61192.01915201024
-60939.27383979208
-60692.22175774357
-60450.68634645276
-60214.49689790128
-59983.48744040613
-59757.5020615725
-59536.38743269938
-59319.99567439294
-59108.18799607566
-58900.82742300793
-58697.78244748292
-58498.92783341907
-58304.14119685052
-58113.30458955123
-57926.30542711757
-57743.03471577808
-57563.38659889549
-57387.25873563764
-57214.55346246289
-57045.17608650864
-56879.03422886103
-56716.03906209224
-56556.10565289915
-56399.15126234054
-56245.09533542006
-56093.86039825472
-55945.37200875964
-55799.55768067954
-55656.34695905705
-55515.67181261459
-55377.4667978401
-55241.66835604982
-55108.21479506851
-54977.04633173464
-54848.10526223766
-54721.33567888042
-54596.68337390162
-54474.09568430974
-54353.52147636063
-54234.91106242396
-54118.2163460414
-54003.39090934418
-53890.38997892137
-53779.169805704
-53669.6875357008
-53561.90159233166
-53455.77202731829
-53351.26006471711
-53248.32768930148
-53146.93804104975
-53047.05565702297
-52948.64591364839
-52851.67446179685
-52756.10874858576
-52661.9168506904
-52569.06847544506
-52477.5306936475
-52387.27807683709
-52298.27509186308
-52210.50648544875
-52123.91952063567
-52038.5389945408
-51954.23949004612
-51871.18651435582
-51788.98752765036
-51708.32724340417
-51627.81569675952
-51550.06155971854
-51469.9717261607
-51397.29674416217
-51313.18280267178
-51253.90004910199
-51130.77936434302
-72354.02373340266
-71615.97754367073
-71210.96543315506
-70655.30341507756
-70199.72914100304
-69712.98694948055
-69262.55848294408
-68812.59362013289
-68381.02323609266
-67957.83620458531
-67547.58474708951
-67147.27644385307
-66757.87064147189
-66378.29868256809
-66008.57115547822
-65648.15877979313
-65296.83849852303
-64954.24765076271
-64620.11625618066
-64294.14537645204
-63976.07133099731
-63665.62658528132
-63362.56220294994
-63066.63804719625
-62777.62243801921
-62495.29311185523
-62219.43681796629
-61949.84970633572
-61686.3337043736
-61428.70028044301
-61176.76760178109
-60930.35917814645
-60689.30846209226
-60453.45205947576
-60222.63272750397
-59996.70242830174
-59775.51510967449
-59558.93067535941
-59346.81563114309
-59139.03955599502
-58935.47675906648
-58736.00723959064