/*--------------------------------*- C++ -*----------------------------------*\
| =========                 |                                                 |
| \\      /  F ield         | foam-extend: Open Source CFD                    |
|  \\    /   O peration     | Version:     4.1                                |
|   \\  /    A nd           | Web:         http://www.foam-extend.org         |
|    \\/     M anipulation  |                                                 |
\*---------------------------------------------------------------------------*/
FoamFile
{
    version     2.0;
    format      ascii;
    class       pointVectorField;
    location    "9";
    object      pointD;
}
// * * * * * * * * * * * * * * * * * * * * * * * * * * * * * * * * * * * * * //

dimensions      [0 1 0 0 0 0 0];

internalField   nonuniform List<vector> 
2142
(
(5.23246e-06 -2.17311e-06 -2.87213e-22)
(4.87685e-06 -1.92702e-06 0)
(4.65901e-06 -1.78813e-06 0)
(4.52442e-06 -1.70606e-06 0)
(4.45084e-06 -1.66584e-06 0)
(4.4204e-06 -1.65264e-06 0)
(4.42177e-06 -1.65861e-06 0)
(4.44689e-06 -1.67771e-06 0)
(4.48998e-06 -1.70603e-06 0)
(4.54688e-06 -1.74086e-06 0)
(4.61628e-06 -1.78165e-06 0)
(4.80116e-06 -2.34056e-06 -1.25584e-22)
(4.41525e-06 -2.1457e-06 0)
(4.1785e-06 -2.03937e-06 0)
(4.03152e-06 -1.97845e-06 0)
(3.94912e-06 -1.95245e-06 0)
(3.91193e-06 -1.94894e-06 0)
(3.90755e-06 -1.96181e-06 0)
(3.92741e-06 -1.98592e-06 0)
(3.96518e-06 -2.01823e-06 0)
(4.01677e-06 -2.05594e-06 0)
(4.07806e-06 -2.09878e-06 0)
(4.34133e-06 -2.49413e-06 1.96842e-22)
(3.93973e-06 -2.35913e-06 0)
(3.6931e-06 -2.29065e-06 0)
(3.53947e-06 -2.25424e-06 0)
(3.45182e-06 -2.24457e-06 0)
(3.40998e-06 -2.25206e-06 0)
(3.40097e-06 -2.27266e-06 0)
(3.41594e-06 -2.3023e-06 0)
(3.44835e-06 -2.33893e-06 0)
(3.49371e-06 -2.37978e-06 0)
(3.54806e-06 -2.42602e-06 0)
(3.85586e-06 -2.6327e-06 4.53831e-22)
(3.45466e-06 -2.56276e-06 0)
(3.20812e-06 -2.53529e-06 0)
(3.05416e-06 -2.52538e-06 0)
(2.96521e-06 -2.53325e-06 0)
(2.92112e-06 -2.55243e-06 0)
(2.90886e-06 -2.5811e-06 0)
(2.91962e-06 -2.61643e-06 0)
(2.94699e-06 -2.65731e-06 0)
(2.98642e-06 -2.70143e-06 0)
(3.03459e-06 -2.75045e-06 0)
(3.34774e-06 -2.75521e-06 1.54202e-23)
(2.96369e-06 -2.75185e-06 0)
(2.72758e-06 -2.76625e-06 0)
(2.57988e-06 -2.78337e-06 0)
(2.49376e-06 -2.80905e-06 0)
(2.44993e-06 -2.84004e-06 0)
(2.43588e-06 -2.87679e-06 0)
(2.44323e-06 -2.91774e-06 0)
(2.46595e-06 -2.96275e-06 0)
(2.49962e-06 -3.01011e-06 0)
(2.54164e-06 -3.06172e-06 0)
(2.82006e-06 -2.86068e-06 -2.79371e-22)
(2.46967e-06 -2.92167e-06 0)
(2.2542e-06 -2.97645e-06 0)
(2.11922e-06 -3.01961e-06 0)
(2.03999e-06 -3.06241e-06 0)
(1.99891e-06 -3.10473e-06 0)
(1.98454e-06 -3.14915e-06 0)
(1.98927e-06 -3.19544e-06 0)
(2.00768e-06 -3.24432e-06 0)
(2.03568e-06 -3.29478e-06 0)
(2.07131e-06 -3.34876e-06 0)
(2.27595e-06 -2.94825e-06 3.52789e-23)
(1.97464e-06 -3.0677e-06 0)
(1.7893e-06 -3.15913e-06 0)
(1.67309e-06 -3.22592e-06 0)
(1.60453e-06 -3.28422e-06 0)
(1.56851e-06 -3.33676e-06 0)
(1.55518e-06 -3.38811e-06 0)
(1.558e-06 -3.43921e-06 0)
(1.57238e-06 -3.49155e-06 0)
(1.59475e-06 -3.54484e-06 0)
(1.62371e-06 -3.6009e-06 0)
(1.71866e-06 -3.01716e-06 3.85682e-23)
(1.47987e-06 -3.18589e-06 0)
(1.33295e-06 -3.30819e-06 0)
(1.24077e-06 -3.39488e-06 0)
(1.1862e-06 -3.46622e-06 0)
(1.15725e-06 -3.52736e-06 0)
(1.14613e-06 -3.58452e-06 0)
(1.14766e-06 -3.63966e-06 0)
(1.15824e-06 -3.69491e-06 0)
(1.175e-06 -3.7506e-06 0)
(1.197e-06 -3.8084e-06 0)
(1.15142e-06 -3.06678e-06 1.03679e-22)
(9.8595e-07 -3.27285e-06 0)
(8.84102e-07 -3.41852e-06 0)
(8.20151e-07 -3.52028e-06 0)
(7.82201e-07 -3.60149e-06 0)
(7.61937e-07 -3.66914e-06 0)
(7.53963e-07 -3.73069e-06 0)
(7.54684e-07 -3.78889e-06 0)
(7.61632e-07 -3.84635e-06 0)
(7.72791e-07 -3.90389e-06 0)
(7.87603e-07 -3.96299e-06 0)
(5.77586e-07 -3.09665e-06 1.58979e-22)
(4.92938e-07 -3.326e-06 0)
(4.40785e-07 -3.48626e-06 0)
(4.08011e-07 -3.59743e-06 0)
(3.88524e-07 -3.68481e-06 0)
(3.78071e-07 -3.75652e-06 0)
(3.73891e-07 -3.82082e-06 0)
(3.74145e-07 -3.88092e-06 0)
(3.77574e-07 -3.93977e-06 0)
(3.8314e-07 -3.99847e-06 0)
(3.90583e-07 -4.05841e-06 0)
(0 -3.10634e-06 1.11486e-22)
(0 -3.34379e-06 -4.52253e-25)
(0 -3.50921e-06 0)
(0 -3.62347e-06 0)
(0 -3.71301e-06 0)
(0 -3.78606e-06 0)
(0 -3.85132e-06 0)
(0 -3.91206e-06 0)
(0 -3.97138e-06 0)
(0 -4.03049e-06 0)
(0 -4.0907e-06 0)
(5.23246e-06 -2.17311e-06 -2.87213e-22)
(4.87685e-06 -1.92702e-06 0)
(4.65901e-06 -1.78813e-06 0)
(4.52442e-06 -1.70606e-06 0)
(4.45084e-06 -1.66584e-06 0)
(4.4204e-06 -1.65264e-06 0)
(4.42177e-06 -1.65861e-06 0)
(4.44689e-06 -1.67771e-06 0)
(4.48998e-06 -1.70603e-06 0)
(4.54688e-06 -1.74086e-06 0)
(4.61628e-06 -1.78165e-06 0)
(4.80116e-06 -2.34056e-06 -1.25584e-22)
(4.41525e-06 -2.1457e-06 0)
(4.1785e-06 -2.03937e-06 0)
(4.03152e-06 -1.97845e-06 0)
(3.94912e-06 -1.95245e-06 0)
(3.91193e-06 -1.94894e-06 0)
(3.90755e-06 -1.96181e-06 0)
(3.92741e-06 -1.98592e-06 0)
(3.96518e-06 -2.01823e-06 0)
(4.01677e-06 -2.05594e-06 0)
(4.07806e-06 -2.09878e-06 0)
(4.34133e-06 -2.49413e-06 1.96842e-22)
(3.93973e-06 -2.35913e-06 0)
(3.6931e-06 -2.29065e-06 0)
(3.53947e-06 -2.25424e-06 0)
(3.45182e-06 -2.24457e-06 0)
(3.40998e-06 -2.25206e-06 0)
(3.40097e-06 -2.27266e-06 0)
(3.41594e-06 -2.3023e-06 0)
(3.44835e-06 -2.33893e-06 0)
(3.49371e-06 -2.37978e-06 0)
(3.54806e-06 -2.42602e-06 0)
(3.85586e-06 -2.6327e-06 4.53831e-22)
(3.45466e-06 -2.56276e-06 0)
(3.20812e-06 -2.53529e-06 0)
(3.05416e-06 -2.52538e-06 0)
(2.96521e-06 -2.53325e-06 0)
(2.92112e-06 -2.55243e-06 0)
(2.90886e-06 -2.5811e-06 0)
(2.91962e-06 -2.61643e-06 0)
(2.94699e-06 -2.65731e-06 0)
(2.98642e-06 -2.70143e-06 0)
(3.03459e-06 -2.75045e-06 0)
(3.34774e-06 -2.75521e-06 1.54202e-23)
(2.96369e-06 -2.75185e-06 0)
(2.72758e-06 -2.76625e-06 0)
(2.57988e-06 -2.78337e-06 0)
(2.49376e-06 -2.80905e-06 0)
(2.44993e-06 -2.84004e-06 0)
(2.43588e-06 -2.87679e-06 0)
(2.44323e-06 -2.91774e-06 0)
(2.46595e-06 -2.96275e-06 0)
(2.49962e-06 -3.01011e-06 0)
(2.54164e-06 -3.06172e-06 0)
(2.82006e-06 -2.86068e-06 -2.79371e-22)
(2.46967e-06 -2.92167e-06 0)
(2.2542e-06 -2.97645e-06 0)
(2.11922e-06 -3.01961e-06 0)
(2.03999e-06 -3.06241e-06 0)
(1.99891e-06 -3.10473e-06 0)
(1.98454e-06 -3.14915e-06 0)
(1.98927e-06 -3.19544e-06 0)
(2.00768e-06 -3.24432e-06 0)
(2.03568e-06 -3.29478e-06 0)
(2.07131e-06 -3.34876e-06 0)
(2.27595e-06 -2.94825e-06 3.52789e-23)
(1.97464e-06 -3.0677e-06 0)
(1.7893e-06 -3.15913e-06 0)
(1.67309e-06 -3.22592e-06 0)
(1.60453e-06 -3.28422e-06 0)
(1.56851e-06 -3.33676e-06 0)
(1.55518e-06 -3.38811e-06 0)
(1.558e-06 -3.43921e-06 0)
(1.57238e-06 -3.49155e-06 0)
(1.59475e-06 -3.54484e-06 0)
(1.62371e-06 -3.6009e-06 0)
(1.71866e-06 -3.01716e-06 3.85682e-23)
(1.47987e-06 -3.18589e-06 0)
(1.33295e-06 -3.30819e-06 0)
(1.24077e-06 -3.39488e-06 0)
(1.1862e-06 -3.46622e-06 0)
(1.15725e-06 -3.52736e-06 0)
(1.14613e-06 -3.58452e-06 0)
(1.14766e-06 -3.63966e-06 0)
(1.15824e-06 -3.69491e-06 0)
(1.175e-06 -3.7506e-06 0)
(1.197e-06 -3.8084e-06 0)
(1.15142e-06 -3.06678e-06 1.03679e-22)
(9.8595e-07 -3.27285e-06 0)
(8.84102e-07 -3.41852e-06 0)
(8.20151e-07 -3.52028e-06 0)
(7.82201e-07 -3.60149e-06 0)
(7.61937e-07 -3.66914e-06 0)
(7.53963e-07 -3.73069e-06 0)
(7.54684e-07 -3.78889e-06 0)
(7.61632e-07 -3.84635e-06 0)
(7.72791e-07 -3.90389e-06 0)
(7.87603e-07 -3.96299e-06 0)
(5.77586e-07 -3.09665e-06 1.58979e-22)
(4.92938e-07 -3.326e-06 0)
(4.40785e-07 -3.48626e-06 0)
(4.08011e-07 -3.59743e-06 0)
(3.88524e-07 -3.68481e-06 0)
(3.78071e-07 -3.75652e-06 0)
(3.73891e-07 -3.82082e-06 0)
(3.74145e-07 -3.88092e-06 0)
(3.77574e-07 -3.93977e-06 0)
(3.8314e-07 -3.99847e-06 0)
(3.90583e-07 -4.05841e-06 0)
(0 -3.10634e-06 1.11486e-22)
(0 -3.34379e-06 -4.52253e-25)
(0 -3.50921e-06 0)
(0 -3.62347e-06 0)
(0 -3.71301e-06 0)
(0 -3.78606e-06 0)
(0 -3.85132e-06 0)
(0 -3.91206e-06 0)
(0 -3.97138e-06 0)
(0 -4.03049e-06 0)
(0 -4.0907e-06 0)
(7.44935e-06 0 -9.09066e-23)
(7.53323e-06 0 3.6877e-25)
(7.58826e-06 0 0)
(7.62979e-06 0 0)
(7.67405e-06 0 0)
(7.72511e-06 0 0)
(7.78671e-06 0 0)
(7.8593e-06 0 0)
(7.94326e-06 0 0)
(8.03786e-06 0 0)
(8.14288e-06 0 0)
(7.42602e-06 -2.39038e-07 -4.08031e-23)
(7.50227e-06 -1.66055e-07 0)
(7.55247e-06 -1.22487e-07 0)
(7.59105e-06 -9.55274e-08 0)
(7.63327e-06 -7.98319e-08 0)
(7.683e-06 -7.14313e-08 0)
(7.74362e-06 -6.79244e-08 0)
(7.81547e-06 -6.76709e-08 0)
(7.89883e-06 -6.96288e-08 0)
(7.99284e-06 -7.28087e-08 0)
(8.0974e-06 -7.73582e-08 0)
(7.35562e-06 -4.76685e-07 -7.94394e-23)
(7.40977e-06 -3.34405e-07 0)
(7.44623e-06 -2.49698e-07 0)
(7.47597e-06 -1.97358e-07 0)
(7.51234e-06 -1.66969e-07 0)
(7.5581e-06 -1.50791e-07 0)
(7.61588e-06 -1.44147e-07 0)
(7.68556e-06 -1.43844e-07 0)
(7.76714e-06 -1.47845e-07 0)
(7.85942e-06 -1.54238e-07 0)
(7.96257e-06 -1.63268e-07 0)
(7.23856e-06 -7.11758e-07 -2.38013e-22)
(7.25741e-06 -5.07638e-07 0)
(7.27202e-06 -3.86351e-07 0)
(7.28767e-06 -3.11507e-07 0)
(7.31473e-06 -2.68212e-07 0)
(7.35416e-06 -2.4534e-07 0)
(7.40742e-06 -2.36181e-07 0)
(7.47362e-06 -2.36156e-07 0)
(7.55234e-06 -2.42319e-07 0)
(7.6419e-06 -2.51961e-07 0)
(7.74278e-06 -2.65312e-07 0)
(7.07584e-06 -9.42818e-07 -1.68019e-22)
(7.04833e-06 -6.87638e-07 0)
(7.03423e-06 -5.36298e-07 0)
(7.03138e-06 -4.43057e-07 0)
(7.0462e-06 -3.89406e-07 0)
(7.0773e-06 -3.61383e-07 0)
(7.12458e-06 -3.50602e-07 0)
(7.1862e-06 -3.51324e-07 0)
(7.26116e-06 -3.59823e-07 0)
(7.34712e-06 -3.72765e-07 0)
(7.44502e-06 -3.90235e-07 0)
(6.86875e-06 -1.16858e-06 -1.32363e-23)
(6.78662e-06 -8.75712e-07 0)
(6.73869e-06 -7.02463e-07 0)
(6.71402e-06 -5.95951e-07 0)
(6.71438e-06 -5.3513e-07 0)
(6.73563e-06 -5.03889e-07 0)
(6.77582e-06 -4.92604e-07 0)
(6.83199e-06 -4.94665e-07 0)
(6.90243e-06 -5.05728e-07 0)
(6.98413e-06 -5.22033e-07 0)
(7.07842e-06 -5.4336e-07 0)
(6.61887e-06 -1.38774e-06 -4.13929e-24)
(6.47721e-06 -1.07241e-06 0)
(6.39237e-06 -8.8655e-07 0)
(6.34389e-06 -7.72626e-07 0)
(6.32843e-06 -7.08278e-07 0)
(6.33886e-06 -6.76031e-07 0)
(6.3712e-06 -6.6553e-07 0)
(6.42131e-06 -6.6962e-07 0)
(6.48669e-06 -6.83532e-07 0)
(6.56366e-06 -7.03286e-07 0)
(6.65384e-06 -7.28222e-07 0)
(6.32809e-06 -1.59902e-06 -7.02909e-24)
(6.12562e-06 -1.27747e-06 0)
(6.00304e-06 -1.08892e-06 0)
(5.93019e-06 -9.73853e-07 0)
(5.89848e-06 -9.09878e-07 0)
(5.89771e-06 -8.78992e-07 0)
(5.92185e-06 -8.70659e-07 0)
(5.96555e-06 -8.77524e-07 0)
(6.02551e-06 -8.94616e-07 0)
(6.09744e-06 -9.1795e-07 0)
(6.18306e-06 -9.46242e-07 0)
(5.99851e-06 -1.80115e-06 3.41002e-22)
(5.73773e-06 -1.48973e-06 0)
(5.57891e-06 -1.30852e-06 0)
(5.48264e-06 -1.19862e-06 0)
(5.43521e-06 -1.13896e-06 0)
(5.4235e-06 -1.11181e-06 0)
(5.43948e-06 -1.10704e-06 0)
(5.47672e-06 -1.11743e-06 0)
(5.53103e-06 -1.13809e-06 0)
(5.5978e-06 -1.16521e-06 0)
(5.67858e-06 -1.19694e-06 0)
(5.63246e-06 -1.99292e-06 2.16278e-22)
(5.31952e-06 -1.70719e-06 0)
(5.12825e-06 -1.54286e-06 0)
(5.01094e-06 -1.44417e-06 0)
(4.94926e-06 -1.39256e-06 0)
(4.92745e-06 -1.37141e-06 0)
(4.93569e-06 -1.37148e-06 0)
(4.96658e-06 -1.38606e-06 0)
(5.01515e-06 -1.41059e-06 0)
(5.07675e-06 -1.44185e-06 0)
(5.15189e-06 -1.47705e-06 0)
(7.44935e-06 0 -9.09066e-23)
(7.53323e-06 0 3.6877e-25)
(7.58826e-06 0 0)
(7.62979e-06 0 0)
(7.67405e-06 0 0)
(7.72511e-06 0 0)
(7.78671e-06 0 0)
(7.8593e-06 0 0)
(7.94326e-06 0 0)
(8.03786e-06 0 0)
(8.14288e-06 0 0)
(7.42602e-06 -2.39038e-07 -4.08031e-23)
(7.50227e-06 -1.66055e-07 0)
(7.55247e-06 -1.22487e-07 0)
(7.59105e-06 -9.55274e-08 0)
(7.63327e-06 -7.98319e-08 0)
(7.683e-06 -7.14313e-08 0)
(7.74362e-06 -6.79244e-08 0)
(7.81547e-06 -6.76709e-08 0)
(7.89883e-06 -6.96288e-08 0)
(7.99284e-06 -7.28087e-08 0)
(8.0974e-06 -7.73582e-08 0)
(7.35562e-06 -4.76685e-07 -7.94394e-23)
(7.40977e-06 -3.34405e-07 0)
(7.44623e-06 -2.49698e-07 0)
(7.47597e-06 -1.97358e-07 0)
(7.51234e-06 -1.66969e-07 0)
(7.5581e-06 -1.50791e-07 0)
(7.61588e-06 -1.44147e-07 0)
(7.68556e-06 -1.43844e-07 0)
(7.76714e-06 -1.47845e-07 0)
(7.85942e-06 -1.54238e-07 0)
(7.96257e-06 -1.63268e-07 0)
(7.23856e-06 -7.11758e-07 -2.38013e-22)
(7.25741e-06 -5.07638e-07 0)
(7.27202e-06 -3.86351e-07 0)
(7.28767e-06 -3.11507e-07 0)
(7.31473e-06 -2.68212e-07 0)
(7.35416e-06 -2.4534e-07 0)
(7.40742e-06 -2.36181e-07 0)
(7.47362e-06 -2.36156e-07 0)
(7.55234e-06 -2.42319e-07 0)
(7.6419e-06 -2.51961e-07 0)
(7.74278e-06 -2.65312e-07 0)
(7.07584e-06 -9.42818e-07 -1.68019e-22)
(7.04833e-06 -6.87638e-07 0)
(7.03423e-06 -5.36298e-07 0)
(7.03138e-06 -4.43057e-07 0)
(7.0462e-06 -3.89406e-07 0)
(7.0773e-06 -3.61383e-07 0)
(7.12458e-06 -3.50602e-07 0)
(7.1862e-06 -3.51324e-07 0)
(7.26116e-06 -3.59823e-07 0)
(7.34712e-06 -3.72765e-07 0)
(7.44502e-06 -3.90235e-07 0)
(6.86875e-06 -1.16858e-06 -1.32363e-23)
(6.78662e-06 -8.75712e-07 0)
(6.73869e-06 -7.02463e-07 0)
(6.71402e-06 -5.95951e-07 0)
(6.71438e-06 -5.3513e-07 0)
(6.73563e-06 -5.03889e-07 0)
(6.77582e-06 -4.92604e-07 0)
(6.83199e-06 -4.94665e-07 0)
(6.90243e-06 -5.05728e-07 0)
(6.98413e-06 -5.22033e-07 0)
(7.07842e-06 -5.4336e-07 0)
(6.61887e-06 -1.38774e-06 -4.13929e-24)
(6.47721e-06 -1.07241e-06 0)
(6.39237e-06 -8.8655e-07 0)
(6.34389e-06 -7.72626e-07 0)
(6.32843e-06 -7.08278e-07 0)
(6.33886e-06 -6.76031e-07 0)
(6.3712e-06 -6.6553e-07 0)
(6.42131e-06 -6.6962e-07 0)
(6.48669e-06 -6.83532e-07 0)
(6.56366e-06 -7.03286e-07 0)
(6.65384e-06 -7.28222e-07 0)
(6.32809e-06 -1.59902e-06 -7.02909e-24)
(6.12562e-06 -1.27747e-06 0)
(6.00304e-06 -1.08892e-06 0)
(5.93019e-06 -9.73853e-07 0)
(5.89848e-06 -9.09878e-07 0)
(5.89771e-06 -8.78992e-07 0)
(5.92185e-06 -8.70659e-07 0)
(5.96555e-06 -8.77524e-07 0)
(6.02551e-06 -8.94616e-07 0)
(6.09744e-06 -9.1795e-07 0)
(6.18306e-06 -9.46242e-07 0)
(5.99851e-06 -1.80115e-06 3.41002e-22)
(5.73773e-06 -1.48973e-06 0)
(5.57891e-06 -1.30852e-06 0)
(5.48264e-06 -1.19862e-06 0)
(5.43521e-06 -1.13896e-06 0)
(5.4235e-06 -1.11181e-06 0)
(5.43948e-06 -1.10704e-06 0)
(5.47672e-06 -1.11743e-06 0)
(5.53103e-06 -1.13809e-06 0)
(5.5978e-06 -1.16521e-06 0)
(5.67858e-06 -1.19694e-06 0)
(5.63246e-06 -1.99292e-06 2.16278e-22)
(5.31952e-06 -1.70719e-06 0)
(5.12825e-06 -1.54286e-06 0)
(5.01094e-06 -1.44417e-06 0)
(4.94926e-06 -1.39256e-06 0)
(4.92745e-06 -1.37141e-06 0)
(4.93569e-06 -1.37148e-06 0)
(4.96658e-06 -1.38606e-06 0)
(5.01515e-06 -1.41059e-06 0)
(5.07675e-06 -1.44185e-06 0)
(5.15189e-06 -1.47705e-06 0)
(8.25797e-06 0 0)
(8.38157e-06 0 0)
(8.51269e-06 0 0)
(8.65068e-06 0 0)
(8.79479e-06 0 0)
(8.94441e-06 0 0)
(9.09894e-06 0 0)
(9.25778e-06 0 0)
(9.42041e-06 0 0)
(9.5863e-06 0 0)
(9.75492e-06 0 0)
(9.92578e-06 0 0)
(1.00983e-05 0 0)
(1.02721e-05 0 0)
(1.04464e-05 0 0)
(1.06207e-05 0 0)
(1.07942e-05 0 0)
(1.09664e-05 0 0)
(1.11358e-05 0 -2.72371e-26)
(1.13027e-05 0 -4.45344e-23)
(8.21657e-06 -7.79533e-08 0)
(8.34362e-06 -7.82235e-08 0)
(8.47777e-06 -7.85106e-08 0)
(8.61842e-06 -7.85133e-08 0)
(8.76489e-06 -7.81657e-08 0)
(8.91661e-06 -7.74009e-08 0)
(9.07302e-06 -7.6162e-08 0)
(9.23357e-06 -7.44114e-08 0)
(9.39775e-06 -7.21053e-08 0)
(9.56505e-06 -6.92033e-08 0)
(9.73498e-06 -6.56561e-08 0)
(9.90705e-06 -6.14072e-08 0)
(1.00807e-05 -5.63876e-08 0)
(1.02555e-05 -5.0513e-08 0)
(1.04308e-05 -4.36821e-08 0)
(1.06061e-05 -3.57684e-08 0)
(1.07806e-05 -2.66247e-08 0)
(1.09537e-05 -1.60513e-08 0)
(1.11241e-05 -3.87607e-09 0)
(1.12918e-05 1.03946e-08 -9.22187e-23)
(8.09373e-06 -1.63144e-07 0)
(8.23097e-06 -1.62636e-07 0)
(8.37409e-06 -1.62328e-07 0)
(8.52261e-06 -1.61621e-07 0)
(8.67607e-06 -1.6034e-07 0)
(8.83401e-06 -1.58336e-07 0)
(8.996e-06 -1.55473e-07 0)
(9.16159e-06 -1.51662e-07 0)
(9.33036e-06 -1.46802e-07 0)
(9.50187e-06 -1.40802e-07 0)
(9.67568e-06 -1.33555e-07 0)
(9.85135e-06 -1.24941e-07 0)
(1.00284e-05 -1.14816e-07 0)
(1.02064e-05 -1.03008e-07 0)
(1.03847e-05 -8.93096e-08 0)
(1.05629e-05 -7.34645e-08 0)
(1.07402e-05 -5.51754e-08 0)
(1.09161e-05 -3.40406e-08 0)
(1.10892e-05 -9.71313e-09 0)
(1.12596e-05 1.87849e-08 -1.55995e-22)
(7.89321e-06 -2.61976e-07 0)
(8.04693e-06 -2.5869e-07 0)
(8.20458e-06 -2.56111e-07 0)
(8.36587e-06 -2.53353e-07 0)
(8.53069e-06 -2.5004e-07 0)
(8.69876e-06 -2.45914e-07 0)
(8.86987e-06 -2.40713e-07 0)
(9.0437e-06 -2.3427e-07 0)
(9.21997e-06 -2.26402e-07 0)
(9.39835e-06 -2.16949e-07 0)
(9.57851e-06 -2.05728e-07 0)
(9.76008e-06 -1.92544e-07 0)
(9.94267e-06 -1.77169e-07 0)
(1.01259e-05 -1.5933e-07 0)
(1.03091e-05 -1.38708e-07 0)
(1.04921e-05 -1.1491e-07 0)
(1.06739e-05 -8.74813e-08 0)
(1.08543e-05 -5.58139e-08 0)
(1.10319e-05 -1.93766e-08 0)
(1.12068e-05 2.32861e-08 -2.50493e-23)
(7.62092e-06 -3.80212e-07 0)
(7.79662e-06 -3.71349e-07 0)
(7.97375e-06 -3.64131e-07 0)
(8.15225e-06 -3.57423e-07 0)
(8.33241e-06 -3.50517e-07 0)
(8.51421e-06 -3.4301e-07 0)
(8.69768e-06 -3.34451e-07 0)
(8.88271e-06 -3.24559e-07 0)
(9.06919e-06 -3.13033e-07 0)
(9.25694e-06 -2.99613e-07 0)
(9.44574e-06 -2.84024e-07 0)
(9.63535e-06 -2.65974e-07 0)
(9.82546e-06 -2.45135e-07 0)
(1.00157e-05 -2.21125e-07 0)
(1.02058e-05 -1.935e-07 0)
(1.03952e-05 -1.61722e-07 0)
(1.05833e-05 -1.25171e-07 0)
(1.07698e-05 -8.30242e-08 0)
(1.09534e-05 -3.45553e-08 0)
(1.11344e-05 2.21609e-08 3.91282e-23)
(7.28461e-06 -5.22507e-07 0)
(7.48677e-06 -5.04657e-07 0)
(7.68753e-06 -4.89874e-07 0)
(7.88702e-06 -4.76846e-07 0)
(8.08602e-06 -4.64394e-07 0)
(8.28471e-06 -4.5192e-07 0)
(8.48345e-06 -4.3872e-07 0)
(8.68234e-06 -4.24349e-07 0)
(8.88148e-06 -4.08345e-07 0)
(9.08085e-06 -3.90319e-07 0)
(9.2804e-06 -3.6987e-07 0)
(9.47999e-06 -3.46588e-07 0)
(9.67945e-06 -3.20028e-07 0)
(9.87853e-06 -2.89681e-07 0)
(1.00769e-05 -2.54967e-07 0)
(1.02743e-05 -2.15192e-07 0)
(1.04702e-05 -1.69563e-07 0)
(1.06642e-05 -1.17033e-07 0)
(1.08553e-05 -5.66695e-08 0)
(1.10439e-05 1.39083e-08 8.72017e-23)
(6.89351e-06 -6.92096e-07 0)
(7.12537e-06 -6.61575e-07 0)
(7.35299e-06 -6.36e-07 0)
(7.57648e-06 -6.14005e-07 0)
(7.79717e-06 -5.93809e-07 0)
(8.01542e-06 -5.74562e-07 0)
(8.23191e-06 -5.55252e-07 0)
(8.44696e-06 -5.35208e-07 0)
(8.66089e-06 -5.13771e-07 0)
(8.87386e-06 -4.90379e-07 0)
(9.08599e-06 -4.64481e-07 0)
(9.29728e-06 -4.35527e-07 0)
(9.50767e-06 -4.0293e-07 0)
(9.71707e-06 -3.66042e-07 0)
(9.92524e-06 -3.24135e-07 0)
(1.0132e-05 -2.76346e-07 0)
(1.03369e-05 -2.217e-07 0)
(1.05398e-05 -1.58925e-07 0)
(1.07397e-05 -8.68736e-08 0)
(1.0937e-05 -2.73765e-09 1.56604e-22)
(6.45766e-06 -8.90423e-07 0)
(6.72113e-06 -8.43473e-07 0)
(6.97775e-06 -8.03761e-07 0)
(7.22745e-06 -7.69959e-07 0)
(7.47202e-06 -7.39675e-07 0)
(7.71197e-06 -7.11698e-07 0)
(7.94825e-06 -6.84694e-07 0)
(8.18138e-06 -6.57693e-07 0)
(8.41191e-06 -6.29805e-07 0)
(8.64017e-06 -6.00251e-07 0)
(8.86644e-06 -5.68298e-07 0)
(9.09089e-06 -5.33222e-07 0)
(9.31359e-06 -4.94281e-07 0)
(9.53458e-06 -4.50667e-07 0)
(9.75374e-06 -4.0149e-07 0)
(9.971e-06 -3.45712e-07 0)
(1.0186e-05 -2.82171e-07 0)
(1.03988e-05 -2.09367e-07 0)
(1.06086e-05 -1.25931e-07 0)
(1.08159e-05 -2.86646e-08 3.91473e-24)
(5.98787e-06 -1.1176e-06 0)
(6.28342e-06 -1.05089e-06 0)
(6.57003e-06 -9.94065e-07 0)
(6.84723e-06 -9.45729e-07 0)
(7.11708e-06 -9.03081e-07 0)
(7.38021e-06 -8.64412e-07 0)
(7.63777e-06 -8.28079e-07 0)
(7.89047e-06 -7.92762e-07 0)
(8.13901e-06 -7.57311e-07 0)
(8.38392e-06 -7.20701e-07 0)
(8.62563e-06 -6.81991e-07 0)
(8.86446e-06 -6.40265e-07 0)
(9.10061e-06 -5.94601e-07 0)
(9.33425e-06 -5.4402e-07 0)
(9.56541e-06 -4.87459e-07 0)
(9.79412e-06 -4.23699e-07 0)
(1.00202e-05 -3.51387e-07 0)
(1.02438e-05 -2.68803e-07 0)
(1.04643e-05 -1.74365e-07 0)
(1.06824e-05 -6.45616e-08 -4.51732e-23)
(5.49418e-06 -1.37087e-06 0)
(5.82097e-06 -1.28131e-06 0)
(6.13742e-06 -1.20484e-06 0)
(6.44278e-06 -1.13941e-06 0)
(6.7388e-06 -1.08225e-06 0)
(7.02624e-06 -1.03107e-06 0)
(7.30623e-06 -9.83913e-07 0)
(7.57965e-06 -9.39081e-07 0)
(7.84732e-06 -8.95113e-07 0)
(8.10994e-06 -8.50709e-07 0)
(8.36808e-06 -8.04683e-07 0)
(8.62221e-06 -7.55905e-07 0)
(8.87268e-06 -7.03259e-07 0)
(9.11979e-06 -6.45578e-07 0)
(9.36368e-06 -5.81624e-07 0)
(9.60455e-06 -5.09994e-07 0)
(9.84237e-06 -4.2915e-07 0)
(1.00774e-05 -3.37159e-07 0)
(1.03093e-05 -2.32236e-07 0)
(1.05389e-05 -1.10575e-07 2.77357e-23)
(4.98999e-06 -1.64686e-06 0)
(5.34575e-06 -1.53191e-06 0)
(5.69053e-06 -1.43459e-06 0)
(6.02315e-06 -1.35048e-06 0)
(6.34493e-06 -1.27722e-06 0)
(6.65663e-06 -1.21204e-06 0)
(6.95928e-06 -1.15272e-06 0)
(7.25382e-06 -1.09722e-06 0)
(7.54114e-06 -1.04376e-06 0)
(7.82204e-06 -9.90772e-07 0)
(8.09722e-06 -9.36803e-07 0)
(8.36727e-06 -8.80495e-07 0)
(8.63266e-06 -8.20523e-07 0)
(8.8938e-06 -7.5553e-07 0)
(9.151e-06 -6.84093e-07 0)
(9.40456e-06 -6.04636e-07 0)
(9.65464e-06 -5.1544e-07 0)
(9.90161e-06 -4.144e-07 0)
(1.01454e-05 -2.99515e-07 0)
(1.0387e-05 -1.668e-07 8.07892e-23)
(8.25797e-06 0 0)
(8.38157e-06 0 0)
(8.51269e-06 0 0)
(8.65068e-06 0 0)
(8.79479e-06 0 0)
(8.94441e-06 0 0)
(9.09894e-06 0 0)
(9.25778e-06 0 0)
(9.42041e-06 0 0)
(9.5863e-06 0 0)
(9.75492e-06 0 0)
(9.92578e-06 0 0)
(1.00983e-05 0 0)
(1.02721e-05 0 0)
(1.04464e-05 0 0)
(1.06207e-05 0 0)
(1.07942e-05 0 0)
(1.09664e-05 0 0)
(1.11358e-05 0 -2.72371e-26)
(1.13027e-05 0 -4.45344e-23)
(8.21657e-06 -7.79533e-08 0)
(8.34362e-06 -7.82235e-08 0)
(8.47777e-06 -7.85106e-08 0)
(8.61842e-06 -7.85133e-08 0)
(8.76489e-06 -7.81657e-08 0)
(8.91661e-06 -7.74009e-08 0)
(9.07302e-06 -7.6162e-08 0)
(9.23357e-06 -7.44114e-08 0)
(9.39775e-06 -7.21053e-08 0)
(9.56505e-06 -6.92033e-08 0)
(9.73498e-06 -6.56561e-08 0)
(9.90705e-06 -6.14072e-08 0)
(1.00807e-05 -5.63876e-08 0)
(1.02555e-05 -5.0513e-08 0)
(1.04308e-05 -4.36821e-08 0)
(1.06061e-05 -3.57684e-08 0)
(1.07806e-05 -2.66247e-08 0)
(1.09537e-05 -1.60513e-08 0)
(1.11241e-05 -3.87607e-09 0)
(1.12918e-05 1.03946e-08 -9.22187e-23)
(8.09373e-06 -1.63144e-07 0)
(8.23097e-06 -1.62636e-07 0)
(8.37409e-06 -1.62328e-07 0)
(8.52261e-06 -1.61621e-07 0)
(8.67607e-06 -1.6034e-07 0)
(8.83401e-06 -1.58336e-07 0)
(8.996e-06 -1.55473e-07 0)
(9.16159e-06 -1.51662e-07 0)
(9.33036e-06 -1.46802e-07 0)
(9.50187e-06 -1.40802e-07 0)
(9.67568e-06 -1.33555e-07 0)
(9.85135e-06 -1.24941e-07 0)
(1.00284e-05 -1.14816e-07 0)
(1.02064e-05 -1.03008e-07 0)
(1.03847e-05 -8.93096e-08 0)
(1.05629e-05 -7.34645e-08 0)
(1.07402e-05 -5.51754e-08 0)
(1.09161e-05 -3.40406e-08 0)
(1.10892e-05 -9.71313e-09 0)
(1.12596e-05 1.87849e-08 -1.55995e-22)
(7.89321e-06 -2.61976e-07 0)
(8.04693e-06 -2.5869e-07 0)
(8.20458e-06 -2.56111e-07 0)
(8.36587e-06 -2.53353e-07 0)
(8.53069e-06 -2.5004e-07 0)
(8.69876e-06 -2.45914e-07 0)
(8.86987e-06 -2.40713e-07 0)
(9.0437e-06 -2.3427e-07 0)
(9.21997e-06 -2.26402e-07 0)
(9.39835e-06 -2.16949e-07 0)
(9.57851e-06 -2.05728e-07 0)
(9.76008e-06 -1.92544e-07 0)
(9.94267e-06 -1.77169e-07 0)
(1.01259e-05 -1.5933e-07 0)
(1.03091e-05 -1.38708e-07 0)
(1.04921e-05 -1.1491e-07 0)
(1.06739e-05 -8.74813e-08 0)
(1.08543e-05 -5.58139e-08 0)
(1.10319e-05 -1.93766e-08 0)
(1.12068e-05 2.32861e-08 -2.50493e-23)
(7.62092e-06 -3.80212e-07 0)
(7.79662e-06 -3.71349e-07 0)
(7.97375e-06 -3.64131e-07 0)
(8.15225e-06 -3.57423e-07 0)
(8.33241e-06 -3.50517e-07 0)
(8.51421e-06 -3.4301e-07 0)
(8.69768e-06 -3.34451e-07 0)
(8.88271e-06 -3.24559e-07 0)
(9.06919e-06 -3.13033e-07 0)
(9.25694e-06 -2.99613e-07 0)
(9.44574e-06 -2.84024e-07 0)
(9.63535e-06 -2.65974e-07 0)
(9.82546e-06 -2.45135e-07 0)
(1.00157e-05 -2.21125e-07 0)
(1.02058e-05 -1.935e-07 0)
(1.03952e-05 -1.61722e-07 0)
(1.05833e-05 -1.25171e-07 0)
(1.07698e-05 -8.30242e-08 0)
(1.09534e-05 -3.45553e-08 0)
(1.11344e-05 2.21609e-08 3.91282e-23)
(7.28461e-06 -5.22507e-07 0)
(7.48677e-06 -5.04657e-07 0)
(7.68753e-06 -4.89874e-07 0)
(7.88702e-06 -4.76846e-07 0)
(8.08602e-06 -4.64394e-07 0)
(8.28471e-06 -4.5192e-07 0)
(8.48345e-06 -4.3872e-07 0)
(8.68234e-06 -4.24349e-07 0)
(8.88148e-06 -4.08345e-07 0)
(9.08085e-06 -3.90319e-07 0)
(9.2804e-06 -3.6987e-07 0)
(9.47999e-06 -3.46588e-07 0)
(9.67945e-06 -3.20028e-07 0)
(9.87853e-06 -2.89681e-07 0)
(1.00769e-05 -2.54967e-07 0)
(1.02743e-05 -2.15192e-07 0)
(1.04702e-05 -1.69563e-07 0)
(1.06642e-05 -1.17033e-07 0)
(1.08553e-05 -5.66695e-08 0)
(1.10439e-05 1.39083e-08 8.72017e-23)
(6.89351e-06 -6.92096e-07 0)
(7.12537e-06 -6.61575e-07 0)
(7.35299e-06 -6.36e-07 0)
(7.57648e-06 -6.14005e-07 0)
(7.79717e-06 -5.93809e-07 0)
(8.01542e-06 -5.74562e-07 0)
(8.23191e-06 -5.55252e-07 0)
(8.44696e-06 -5.35208e-07 0)
(8.66089e-06 -5.13771e-07 0)
(8.87386e-06 -4.90379e-07 0)
(9.08599e-06 -4.64481e-07 0)
(9.29728e-06 -4.35527e-07 0)
(9.50767e-06 -4.0293e-07 0)
(9.71707e-06 -3.66042e-07 0)
(9.92524e-06 -3.24135e-07 0)
(1.0132e-05 -2.76346e-07 0)
(1.03369e-05 -2.217e-07 0)
(1.05398e-05 -1.58925e-07 0)
(1.07397e-05 -8.68736e-08 0)
(1.0937e-05 -2.73765e-09 1.56604e-22)
(6.45766e-06 -8.90423e-07 0)
(6.72113e-06 -8.43473e-07 0)
(6.97775e-06 -8.03761e-07 0)
(7.22745e-06 -7.69959e-07 0)
(7.47202e-06 -7.39675e-07 0)
(7.71197e-06 -7.11698e-07 0)
(7.94825e-06 -6.84694e-07 0)
(8.18138e-06 -6.57693e-07 0)
(8.41191e-06 -6.29805e-07 0)
(8.64017e-06 -6.00251e-07 0)
(8.86644e-06 -5.68298e-07 0)
(9.09089e-06 -5.33222e-07 0)
(9.31359e-06 -4.94281e-07 0)
(9.53458e-06 -4.50667e-07 0)
(9.75374e-06 -4.0149e-07 0)
(9.971e-06 -3.45712e-07 0)
(1.0186e-05 -2.82171e-07 0)
(1.03988e-05 -2.09367e-07 0)
(1.06086e-05 -1.25931e-07 0)
(1.08159e-05 -2.86646e-08 3.91473e-24)
(5.98787e-06 -1.1176e-06 0)
(6.28342e-06 -1.05089e-06 0)
(6.57003e-06 -9.94065e-07 0)
(6.84723e-06 -9.45729e-07 0)
(7.11708e-06 -9.03081e-07 0)
(7.38021e-06 -8.64412e-07 0)
(7.63777e-06 -8.28079e-07 0)
(7.89047e-06 -7.92762e-07 0)
(8.13901e-06 -7.57311e-07 0)
(8.38392e-06 -7.20701e-07 0)
(8.62563e-06 -6.81991e-07 0)
(8.86446e-06 -6.40265e-07 0)
(9.10061e-06 -5.94601e-07 0)
(9.33425e-06 -5.4402e-07 0)
(9.56541e-06 -4.87459e-07 0)
(9.79412e-06 -4.23699e-07 0)
(1.00202e-05 -3.51387e-07 0)
(1.02438e-05 -2.68803e-07 0)
(1.04643e-05 -1.74365e-07 0)
(1.06824e-05 -6.45616e-08 -4.51732e-23)
(5.49418e-06 -1.37087e-06 0)
(5.82097e-06 -1.28131e-06 0)
(6.13742e-06 -1.20484e-06 0)
(6.44278e-06 -1.13941e-06 0)
(6.7388e-06 -1.08225e-06 0)
(7.02624e-06 -1.03107e-06 0)
(7.30623e-06 -9.83913e-07 0)
(7.57965e-06 -9.39081e-07 0)
(7.84732e-06 -8.95113e-07 0)
(8.10994e-06 -8.50709e-07 0)
(8.36808e-06 -8.04683e-07 0)
(8.62221e-06 -7.55905e-07 0)
(8.87268e-06 -7.03259e-07 0)
(9.11979e-06 -6.45578e-07 0)
(9.36368e-06 -5.81624e-07 0)
(9.60455e-06 -5.09994e-07 0)
(9.84237e-06 -4.2915e-07 0)
(1.00774e-05 -3.37159e-07 0)
(1.03093e-05 -2.32236e-07 0)
(1.05389e-05 -1.10575e-07 2.77357e-23)
(4.98999e-06 -1.64686e-06 0)
(5.34575e-06 -1.53191e-06 0)
(5.69053e-06 -1.43459e-06 0)
(6.02315e-06 -1.35048e-06 0)
(6.34493e-06 -1.27722e-06 0)
(6.65663e-06 -1.21204e-06 0)
(6.95928e-06 -1.15272e-06 0)
(7.25382e-06 -1.09722e-06 0)
(7.54114e-06 -1.04376e-06 0)
(7.82204e-06 -9.90772e-07 0)
(8.09722e-06 -9.36803e-07 0)
(8.36727e-06 -8.80495e-07 0)
(8.63266e-06 -8.20523e-07 0)
(8.8938e-06 -7.5553e-07 0)
(9.151e-06 -6.84093e-07 0)
(9.40456e-06 -6.04636e-07 0)
(9.65464e-06 -5.1544e-07 0)
(9.90161e-06 -4.144e-07 0)
(1.01454e-05 -2.99515e-07 0)
(1.0387e-05 -1.668e-07 8.07892e-23)
(4.3834e-06 -1.99803e-06 0)
(4.75866e-06 -1.85867e-06 0)
(5.11968e-06 -1.73543e-06 0)
(5.46937e-06 -1.62888e-06 0)
(5.80798e-06 -1.53492e-06 0)
(6.13602e-06 -1.45149e-06 0)
(6.45417e-06 -1.37622e-06 0)
(6.7632e-06 -1.30704e-06 0)
(7.06389e-06 -1.24205e-06 0)
(7.35701e-06 -1.17954e-06 0)
(7.64328e-06 -1.11791e-06 0)
(7.92335e-06 -1.05572e-06 0)
(8.1978e-06 -9.91572e-07 0)
(8.46713e-06 -9.24099e-07 0)
(8.73179e-06 -8.51916e-07 0)
(8.99215e-06 -7.73578e-07 0)
(9.24861e-06 -6.87507e-07 0)
(9.50143e-06 -5.92013e-07 0)
(9.75113e-06 -4.85038e-07 0)
(9.99783e-06 -3.64704e-07 0)
(1.02426e-05 -2.27174e-07 8.42864e-23)
(4.18027e-06 -2.20476e-06 0)
(4.55275e-06 -2.06323e-06 0)
(4.91394e-06 -1.93437e-06 0)
(5.26524e-06 -1.82026e-06 0)
(5.60656e-06 -1.71785e-06 0)
(5.93811e-06 -1.62543e-06 0)
(6.26025e-06 -1.54099e-06 0)
(6.57352e-06 -1.46269e-06 0)
(6.87851e-06 -1.38876e-06 0)
(7.17585e-06 -1.31759e-06 0)
(7.46615e-06 -1.24764e-06 0)
(7.75e-06 -1.17748e-06 0)
(8.02794e-06 -1.10571e-06 0)
(8.30047e-06 -1.03096e-06 0)
(8.56806e-06 -9.5186e-07 0)
(8.83112e-06 -8.66968e-07 0)
(9.09012e-06 -7.74737e-07 0)
(9.34541e-06 -6.73537e-07 0)
(9.59759e-06 -5.61412e-07 0)
(9.84698e-06 -4.36618e-07 0)
(1.00947e-05 -2.9565e-07 1.71598e-22)
(4.00278e-06 -2.40491e-06 0)
(4.37029e-06 -2.26137e-06 0)
(4.72837e-06 -2.12854e-06 0)
(5.07832e-06 -2.00858e-06 0)
(5.41954e-06 -1.89913e-06 0)
(5.752e-06 -1.7989e-06 0)
(6.07578e-06 -1.70625e-06 0)
(6.39121e-06 -1.61956e-06 0)
(6.69868e-06 -1.53728e-06 0)
(6.99867e-06 -1.45789e-06 0)
(7.29167e-06 -1.37996e-06 0)
(7.57818e-06 -1.3021e-06 0)
(7.85869e-06 -1.22295e-06 0)
(8.13368e-06 -1.14118e-06 0)
(8.40361e-06 -1.05543e-06 0)
(8.66893e-06 -9.64307e-07 0)
(8.93011e-06 -8.66327e-07 0)
(9.18761e-06 -7.59941e-07 0)
(9.44207e-06 -6.43333e-07 0)
(9.69399e-06 -5.14913e-07 0)
(9.94447e-06 -3.71532e-07 2.47641e-22)
(3.8466e-06 -2.59659e-06 0)
(4.20741e-06 -2.45242e-06 0)
(4.56046e-06 -2.31696e-06 0)
(4.90695e-06 -2.19247e-06 0)
(5.24596e-06 -2.07722e-06 0)
(5.57733e-06 -1.97028e-06 0)
(5.90087e-06 -1.87036e-06 0)
(6.21674e-06 -1.77609e-06 0)
(6.52514e-06 -1.68612e-06 0)
(6.82641e-06 -1.59909e-06 0)
(7.12092e-06 -1.51365e-06 0)
(7.40907e-06 -1.42851e-06 0)
(7.69131e-06 -1.34236e-06 0)
(7.96806e-06 -1.25393e-06 0)
(8.23976e-06 -1.16192e-06 0)
(8.50686e-06 -1.06499e-06 0)
(8.76988e-06 -9.61747e-07 0)
(9.0293e-06 -8.50743e-07 0)
(9.28581e-06 -7.30327e-07 0)
(9.54002e-06 -5.9908e-07 0)
(9.79304e-06 -4.54234e-07 2.17266e-22)
(3.70889e-06 -2.77975e-06 0)
(4.06169e-06 -2.63579e-06 0)
(4.4083e-06 -2.49884e-06 0)
(4.74978e-06 -2.37103e-06 0)
(5.08499e-06 -2.25114e-06 0)
(5.41366e-06 -2.1386e-06 0)
(5.73542e-06 -2.03238e-06 0)
(6.05028e-06 -1.9314e-06 0)
(6.35829e-06 -1.83449e-06 0)
(6.65964e-06 -1.74045e-06 0)
(6.9546e-06 -1.64806e-06 0)
(7.24349e-06 -1.55613e-06 0)
(7.52667e-06 -1.46345e-06 0)
(7.80451e-06 -1.3688e-06 0)
(8.07745e-06 -1.27095e-06 0)
(8.34591e-06 -1.16867e-06 0)
(8.6104e-06 -1.06064e-06 0)
(8.87145e-06 -9.45568e-07 0)
(9.12977e-06 -8.2196e-07 0)
(9.38603e-06 -6.88583e-07 0)
(9.64132e-06 -5.4307e-07 2.19218e-22)
(3.58635e-06 -2.95437e-06 0)
(3.93048e-06 -2.81137e-06 0)
(4.26979e-06 -2.67382e-06 0)
(4.60519e-06 -2.54368e-06 0)
(4.93544e-06 -2.42017e-06 0)
(5.26021e-06 -2.303e-06 0)
(5.57899e-06 -2.19141e-06 0)
(5.89167e-06 -2.08456e-06 0)
(6.19818e-06 -1.98148e-06 0)