/*--------------------------------*- C++ -*----------------------------------*\
| =========                 |                                                 |
| \\      /  F ield         | foam-extend: Open Source CFD                    |
|  \\    /   O peration     | Version:     4.1                                |
|   \\  /    A nd           | Web:         http://www.foam-extend.org         |
|    \\/     M anipulation  |                                                 |
\*---------------------------------------------------------------------------*/
FoamFile
{
    version     2.0;
    format      ascii;
    class       volSymmTensorField;
    location    "9";
    object      sigma;
}
// * * * * * * * * * * * * * * * * * * * * * * * * * * * * * * * * * * * * * //

dimensions      [1 -1 -2 0 0 0 0];

internalField   nonuniform List<symmTensor> 
1000
(
(791888 -487661 -2.41804e-10 342877 -4.591e-10 340430)
(1.03096e+06 -378610 1.36706e-09 55327.7 2.95755e-10 325885)
(1.14781e+06 -300514 -1.48603e-09 -74241.2 -1.06004e-09 322071)
(1.2118e+06 -245428 -5.69733e-10 -161207 -1.31076e-10 315178)
(1.24284e+06 -203511 -9.56306e-11 -203756 2.55179e-11 311724)
(1.25353e+06 -172034 5.99878e-10 -227536 3.82506e-10 307797)
(1.25353e+06 -147024 -1.07383e-09 -235918 -6.03294e-10 305285)
(1.24554e+06 -127589 2.35327e-10 -236628 1.41188e-10 302673)
(1.2363e+06 -111192 -4.29887e-10 -231511 -2.52772e-10 301438)
(1.21865e+06 -97139.4 -5.30663e-10 -225921 -3.34157e-10 297820)
(1.05579e+06 -586032 6.78796e-10 402437 -3.97519e-10 437468)
(1.22836e+06 -403090 -1.37273e-09 119443 -3.63355e-10 404340)
(1.30391e+06 -284684 -1.26923e-09 -6783.82 -3.40246e-10 389136)
(1.33581e+06 -206562 -9.89084e-10 -97079 -6.81136e-10 371619)
(1.34422e+06 -151999 -2.16353e-10 -142854 -1.92853e-10 360409)
(1.33713e+06 -114232 8.60252e-10 -171683 5.05774e-10 349635)
(1.32346e+06 -86601.1 -1.00635e-09 -184645 -6.87643e-10 341644)
(1.30467e+06 -67111.9 4.08135e-10 -190776 3.45352e-10 334170)
(1.28522e+06 -51804.7 -7.60152e-10 -188974 -5.89496e-10 328875)
(1.26138e+06 -40884.8 -2.8109e-10 -190261 -3.14327e-10 321334)
(1.34311e+06 -657735 8.38249e-10 426418 5.11672e-11 530857)
(1.42871e+06 -413915 -1.07213e-09 170822 -4.67718e-10 479859)
(1.45183e+06 -262820 9.82976e-10 60545.5 4.42952e-10 453713)
(1.44552e+06 -166317 -8.87244e-10 -25548.1 -4.26304e-10 425993)
(1.42805e+06 -102005 -2.16717e-10 -70179 -1.63896e-10 407360)
(1.4016e+06 -59691.9 -8.27531e-10 -101535 -4.84097e-10 390019)
(1.37378e+06 -30529.7 1.52429e-15 -117646 -4.12212e-15 376840)
(1.34385e+06 -11347.1 -2.84839e-12 -128407 3.77934e-12 364633)
(1.31562e+06 2512.43 -5.85653e-11 -130284 -2.77841e-10 355602)
(1.28422e+06 12595.7 9.09082e-11 -137266 -6.89246e-11 344087)
(1.64186e+06 -694257 2.89677e-09 419214 -5.77046e-10 618322)
(1.62554e+06 -408733 6.15703e-10 209693 4.59023e-10 550569)
(1.58826e+06 -235950 4.62451e-10 125578 4.28511e-10 514151)
(1.53965e+06 -127632 2.68515e-10 49882.6 1.86982e-10 476859)
(1.49423e+06 -57499.6 1.9399e-09 9875.32 1.16118e-09 451231)
(1.44777e+06 -12821.4 -1.45955e-11 -21978.2 -3.35358e-11 427738)
(1.40572e+06 16652.3 -6.94853e-12 -40344.5 3.27134e-11 409613)
(1.36539e+06 35139.5 -1.839e-11 -55047.5 3.26003e-11 393102)
(1.32903e+06 47358.3 4.22452e-10 -61068.2 2.0966e-10 380388)
(1.2922e+06 56300.8 -3.97203e-11 -72593.6 -8.48492e-11 365881)
(1.93793e+06 -689792 -2.18636e-09 387870 5.60821e-11 697739)
(1.8119e+06 -386161 9.92358e-10 237327 4.04141e-10 614768)
(1.71033e+06 -205090 8.15833e-10 186399 3.97953e-10 569019)
(1.61787e+06 -92911.1 8.48978e-10 125600 4.38988e-10 523041)
(1.54406e+06 -21647.5 -5.10087e-10 92827.3 -2.70433e-10 491067)
(1.47788e+06 22765.7 7.28798e-10 62113.4 3.2894e-10 461997)
(1.42228e+06 51125.4 2.3037e-10 42328.9 1.39086e-10 439383)
(1.37237e+06 68309.4 -4.49447e-10 24245.1 -1.65686e-10 418984)
(1.3291e+06 78700.7 1.03863e-09 13929.8 4.01843e-10 402909)
(1.28776e+06 86411.6 9.68429e-11 -1650.98 -1.17912e-11 385833)
(2.21605e+06 -641868 -3.17177e-11 341146 -2.48732e-13 767158)
(1.98075e+06 -345962 -2.58917e-10 255506 -7.84163e-11 670876)
(1.81562e+06 -171181 1.28065e-09 240906 5.53061e-10 616959)
(1.6806e+06 -63740.1 3.3567e-10 197350 1.00147e-10 563386)
(1.57962e+06 3634.59 -4.7667e-10 173227 -1.87851e-10 525853)
(1.49498e+06 44995.9 -1.21047e-09 144733 -5.91214e-10 491915)
(1.42701e+06 70766.7 9.97136e-12 124170 -1.66026e-10 465355)
(1.36867e+06 85990.8 -6.4181e-11 103331 2.0856e-10 441599)
(1.31955e+06 94432.2 3.30115e-10 88856.4 2.53489e-10 422523)
(1.2747e+06 100811 8.47288e-10 69900.5 3.47522e-10 403379)
(2.46096e+06 -551681 8.25091e-10 288595 -1.07233e-10 824867)
(2.12529e+06 -289163 -4.4961e-10 266395 6.37716e-11 717507)
(1.90212e+06 -135085 3.77192e-10 287190 2.79471e-10 656792)
(1.72872e+06 -40865 1.167e-10 260962 -8.21391e-11 596904)
(1.60347e+06 17696.5 6.77357e-10 245679 1.27043e-10 554746)
(1.50265e+06 53275.8 -2.5969e-11 219889 -1.09694e-10 516762)
(1.42404e+06 75046.3 2.02004e-10 199000 3.27482e-10 486913)
(1.3586e+06 87679.6 7.03539e-10 175995 5.57678e-10 460377)
(1.3048e+06 94154.2 -3.36556e-10 157759 -1.68271e-10 438767)
(1.25718e+06 99177.4 9.67823e-11 136101 -1.79127e-10 417986)
(2.65865e+06 -424038 0 239481 0 869438)
(2.23959e+06 -217952 2.17249e-09 272182 6.58102e-10 753531)
(1.96835e+06 -97490.3 -2.29156e-09 323542 -6.27815e-10 687569)
(1.76346e+06 -24073.7 -8.69062e-11 312563 -1.43537e-10 622807)
(1.61845e+06 21288.2 -2.18318e-10 305134 2.27726e-11 577077)
(1.5046e+06 48658.8 1.13427e-09 281973 4.24776e-10 535972)
(1.41755e+06 65193.6 3.98966e-10 261030 1.53596e-10 503573)
(1.34656e+06 74674.4 -5.50191e-10 236441 -1.02381e-10 474900)
(1.28923e+06 79227.8 2.32922e-11 215101 -9.81131e-11 451299)
(1.2396e+06 82860.5 -2.63055e-10 191436 -2.15525e-10 429310)
(2.79737e+06 -267060 1.48503e-09 201751 1.51118e-10 899737)
(2.3186e+06 -135651 -1.2202e-10 274738 -2.44513e-10 778002)
(2.01303e+06 -58980 -7.62829e-10 348514 -1.52369e-10 708463)
(1.78576e+06 -12329.9 6.36318e-10 348837 2.02257e-10 640379)
(1.62678e+06 16392.6 -2.55747e-10 347266 -5.85909e-11 592213)
(1.50378e+06 33654.1 -6.53107e-10 326160 -9.37644e-11 548982)
(1.41087e+06 43999.1 4.21184e-13 305278 -1.54514e-10 514843)
(1.33608e+06 49888.8 -7.69768e-12 279649 9.24022e-11 484718)
(1.2764e+06 52594.7 -6.96954e-12 256092 5.04274e-11 459747)
(1.22543e+06 54802.9 -2.67787e-10 231085 -1.69377e-10 436955)
(2.86875e+06 -91265 -1.24882e-09 181605 2.22278e-10 915105)
(2.35911e+06 -46152.1 -1.01364e-09 276320 -3.40615e-10 790629)
(2.03574e+06 -19813 7.7553e-10 362339 2.48632e-10 719425)
(1.79688e+06 -3784.74 -1.21168e-09 368887 -1.56833e-10 649730)
(1.63067e+06 6074.2 4.8902e-10 370572 -1.52116e-10 600372)
(1.50295e+06 11992.6 -2.14279e-10 350645 3.26997e-11 556080)
(1.40703e+06 15528.6 -4.21807e-14 329842 1.57116e-10 521062)
(1.3303e+06 17537.4 -1.72824e-10 303683 9.33776e-11 490194)
(1.26944e+06 18442.7 -6.06134e-10 278951 -2.54067e-10 464517)
(1.21782e+06 19190.4 3.00248e-10 253212 2.23052e-11 441308)
(-72747.8 23971.4 -1.71792e-10 -1.05302e+06 7.7766e-10 -337730)
(-44641.9 -10716.7 2.55442e-10 -694852 3.65691e-10 -221848)
(-10427.4 -28397.4 3.37187e-12 -475386 -1.64738e-10 -145744)
(64818.8 -37849.7 -1.35419e-11 -325706 1.16798e-10 -78266.1)
(135948 -42258.2 -1.53809e-10 -227502 -1.0618e-10 -27466)
(211641 -43807.1 2.03616e-10 -157123 8.40117e-11 16355.2)
(280430 -43692.3 2.85341e-11 -107568 3.41801e-11 51858.7)
(345926 -42689.1 -3.77096e-11 -69921.7 6.25402e-11 82801.2)
(404105 -40983.8 2.02802e-10 -41952.9 5.48156e-11 108646)
(458648 -39741.2 -1.88344e-11 -17703.3 -2.71057e-11 132284)
(-71073 66664 9.49833e-12 -1.00214e+06 3.39892e-11 -321963)
(-24598.7 -33624.6 -4.49193e-10 -671672 -6.43043e-10 -208881)
(19352.4 -84463 3.42419e-10 -467384 3.37511e-10 -134410)
(98650.7 -111461 2.48597e-10 -327309 1.79943e-10 -68597.3)
(171245 -123941 -6.33043e-11 -234672 -8.24152e-11 -19028)
(246619 -128187 -6.7773e-10 -167665 -2.50229e-10 23686.2)
(314220 -127670 -1.11859e-11 -119990 -9.46222e-14 58268.9)
(378127 -124600 -1.14407e-10 -83360.6 -6.96e-11 88429.8)
(434175 -119546 7.17705e-11 -55750.7 -3.48749e-12 113527)
(487312 -115831 1.78101e-10 -31561.8 -1.46176e-11 136725)
(-67006.9 95185.1 -1.39157e-10 -903875 -6.44154e-10 -291265)
(13287.9 -59631.9 -3.4251e-10 -627132 -3.01266e-10 -184153)
(74213.7 -137655 5.33194e-10 -452047 1.39626e-10 -113350)
(160586 -178761 1.15225e-10 -330362 1.29673e-10 -50932.9)
(235523 -197476 3.12212e-10 -248368 1.46612e-10 -3853.67)
(310100 -203500 -3.04172e-10 -187814 -1.52108e-10 36686)
(375355 -202235 -4.92987e-10 -143745 -1.41661e-10 69483)
(436231 -197033 -1.67946e-10 -109069 -3.79976e-11 98148.6)
(488259 -188890 8.48052e-12 -82177.9 -7.09585e-13 121824)
(538812 -182790 2.4215e-10 -58146.4 1.0828e-10 144200)
(-54546.7 102334 -4.99911e-10 -765626 -7.09122e-12 -246052)
(71059.2 -89813.5 2.26432e-10 -563432 -3.10149e-10 -147712)
(154485 -185817 -1.35284e-09 -428792 -1.03681e-09 -82292)
(249872 -235863 -3.05649e-10 -332723 2.00485e-11 -24855.4)
(327490 -258032 -1.85554e-11 -265584 3.98606e-11 18571.7)
(400507 -264472 4.01533e-10 -214112 1.80682e-10 55918.4)
(462181 -261959 -1.10836e-10 -175183 -5.94921e-13 86099.5)
(518553 -254551 3.36407e-10 -143335 2.26375e-10 112565)
(564850 -243738 -5.97205e-10 -117593 -1.14964e-10 134177)
(611575 -235411 5.37298e-10 -93852.7 8.19036e-11 155317)
(-27317.5 82892.8 1.3509e-10 -597981 -4.91041e-10 -187589)
(149149 -124994 1.12857e-09 -484439 1.04024e-09 -100587)
(257478 -227404 -1.07484e-09 -397933 -7.20485e-10 -42136.4)
(362121 -279871 -5.02643e-10 -332594 -2.72169e-10 8858.02)
(441893 -302013 4.43328e-10 -283344 1.87196e-10 47564.7)
(512217 -307176 5.94659e-10 -242937 2.44355e-10 80784)
(569033 -302802 3.3812e-10 -210361 2.1923e-10 107602)
(619486 -293133 5.9709e-10 -182095 1.82038e-10 131217)
(658679 -280171 -1.32343e-10 -157959 -1.46078e-10 150216)
(700336 -269869 -8.14986e-10 -134703 -8.13439e-11 169690)
(21985.5 34763.2 -1.32058e-11 -413207 3.23648e-11 -117367)
(247990 -165114 7.09447e-10 -394486 3.55608e-10 -43949)
(379972 -261214 5.75793e-10 -359460 5.18395e-10 6153.6)
(492146 -308952 -2.82572e-10 -327421 -1.89667e-10 49417.4)
(572547 -327260 -5.17994e-10 -297676 -2.28906e-10 82461.4)
(638622 -329319 -3.26861e-10 -269551 -1.3054e-10 110721)
(689244 -322430 5.27308e-10 -244204 2.69122e-10 133512)
(732440 -310485 -6.31728e-10 -220146 -3.39126e-10 153688)
(763513 -295921 1.04934e-09 -198177 3.1892e-10 169601)
(798917 -283969 3.5809e-11 -175700 -1.45054e-10 186965)
(100517 -40808.6 6.1825e-10 -224476 -1.13375e-09 -37187.8)
(367669 -209247 -1.95713e-09 -298485 -1.07319e-09 20755.2)
(518284 -286500 6.68547e-10 -313763 4.49154e-10 61356.3)
(634263 -322481 -6.1149e-11 -314905 1.73667e-10 95807.3)
(712776 -333242 2.88395e-10 -304740 1.38057e-10 122411)
(772651 -330467 -1.20114e-10 -289282 -4.46734e-11 145011)
(815745 -320473 -7.35641e-10 -271578 -3.10971e-10 163250)
(850462 -306332 4.24405e-10 -252258 1.87432e-10 179461)
(872859 -290719 -3.86027e-10 -232955 -1.69412e-10 191971)
(900872 -277473 8.04798e-10 -211806 2.01182e-10 206720)
(214272 -139287 -2.30329e-10 -44516.3 3.31228e-10 50926.8)
(507624 -255549 -6.38406e-10 -201302 -7.47885e-10 91896.5)
(668322 -302896 -9.38631e-10 -261397 -8.98318e-10 122078)
(782493 -320950 3.48611e-10 -293006 1.70705e-10 146846)
(855612 -320936 9.29061e-10 -301050 4.54081e-10 166369)
(906933 -311867 8.46272e-10 -297808 4.12889e-10 182737)
(941065 -298308 -1.31862e-10 -287853 2.5131e-11 195964)
(966196 -282153 4.85609e-10 -273573 2.05965e-10 207787)
(979672 -265979 -4.77583e-10 -257806 -3.42846e-10 216560)
(999228 -251764 1.69603e-10 -238502 1.64129e-10 228218)
(367224 -253234 6.64103e-10 115403 8.94268e-10 144788)
(666596 -301393 9.17652e-10 -107498 1.17295e-09 167729)
(826074 -310424 9.75947e-10 -203196 2.73773e-10 186864)
(931461 -305924 1.41587e-10 -260292 -1.47103e-10 201351)
(995108 -292781 2.95026e-11 -283782 -4.35722e-11 213398)
(1.03539e+06 -276503 -2.13694e-11 -291575 -6.13377e-12 223145)
(1.05935e+06 -259180 7.72129e-10 -288777 4.08136e-10 231172)
(1.07392e+06 -241535 -1.03104e-09 -279986 -6.68208e-10 238180)
(1.07893e+06 -225297 9.52832e-10 -267846 3.94421e-10 243325)
(1.08858e+06 -210609 1.02552e-10 -252684 5.43383e-11 250768)
(560470 -373015 9.95327e-10 246443 -1.66306e-09 242074)
(842135 -343598 9.76504e-10 -20974 4.81465e-10 246348)
(987143 -309461 1.30578e-09 -140354 6.56053e-10 254037)
(1.07576e+06 -279815 6.28569e-10 -216241 4.92449e-10 257855)
(1.12518e+06 -252325 -9.92845e-10 -251479 -5.50972e-10 262111)
(1.15162e+06 -228409 -8.90921e-10 -268365 -4.88832e-10 264976)
(1.16364e+06 -207376 2.33848e-11 -272017 -1.38748e-11 267487)
(1.16668e+06 -188627 -4.68483e-10 -268032 -2.68372e-10 269594)
(1.16303e+06 -173154 4.87111e-10 -261058 4.48013e-10 270593)
(1.16106e+06 -158511 6.63386e-10 -247709 1.51555e-10 274006)
(506655 -36715.9 9.8504e-11 -1715.72 -3.59428e-13 151482)
(550321 -32834.5 1.83142e-10 15637 -5.52421e-11 169787)
(589533 -29743.3 9.86738e-12 30187.8 -1.29434e-13 185916)
(625593 -26893.8 -1.5642e-10 44047.3 -8.44396e-11 200892)
(658228 -24355.4 -6.23672e-10 57392.8 -2.88379e-11 214686)
(688100 -22107.3 -9.49179e-11 70596.1 1.13791e-10 227609)
(715364 -20085.5 5.51911e-10 84041.3 5.88077e-11 239822)
(740323 -18279.2 -5.53701e-10 97915.2 -3.10197e-11 251471)
(763183 -16639.3 4.90954e-11 112503 1.66252e-10 262706)
(784124 -15144.2 3.03854e-10 127993 5.65021e-11 273635)
(803278 -13758.1 5.16393e-11 144618 1.56449e-10 284369)
(820783 -12454.5 6.01492e-10 162611 5.6892e-11 295018)
(836632 -11203.3 5.51182e-10 182193 -1.0792e-10 305647)
(851012 -9974.63 -5.98454e-10 203702 -5.25118e-11 316414)
(863606 -8739.07 -8.88837e-10 227328 1.53899e-12 327280)
(874966 -7459.11 4.70673e-10 253683 7.52128e-11 338595)
(883812 -6105.32 -1.16766e-11 282708 -2.5928e-11 349956)
(892281 -4614.58 3.27779e-10 315842 6.32617e-11 362437)
(895671 -2995.78 2.7426e-10 351902 -2.67824e-12 374272)
(902483 -974.753 6.84306e-11 394917 7.11838e-12 389220)
(531868 -107018 2.80015e-12 -14736.4 3.0827e-12 155139)
(571040 -95893.5 -2.64461e-10 4020.45 -2.9418e-11 172518)
(607079 -86995.7 1.36716e-10 19979.6 3.04774e-11 188117)
(640176 -78797.3 4.38449e-10 34903.2 1.49637e-10 202524)
(670489 -71461.9 -2.56263e-10 49296.1 -9.6572e-13 215936)
(698308 -64960.7 -3.7534e-10 63318.6 -1.22111e-10 228488)
(723897 -59093.6 2.51721e-10 77500.7 1.20655e-10 240419)
(747399 -53843.3 6.49878e-11 91965.5 5.88005e-11 251809)
(769040 -49064.6 -5.81767e-10 107052 -1.81917e-10 262827)
(788926 -44698.9 -3.46834e-10 122935 -6.37608e-11 273558)
(807182 -40642.5 -7.70307e-12 139868 -2.16843e-13 284115)
(823910 -36819.9 1.06378e-09 158083 8.90627e-11 294598)
(839092 -33143.6 4.89908e-11 177808 4.86649e-11 305070)
(852896 -29526.2 -2.4835e-10 199381 5.12013e-11 315683)
(864997 -25882 -5.39737e-11 222992 -5.94956e-11 326397)
(875936 -22100.2 -5.75553e-11 249246 -5.15732e-11 337554)
(884437 -18094.8 -2.05609e-10 278082 4.62056e-11 348756)
(892619 -13678 -1.48855e-10 310922 -1.35689e-11 361062)
(895818 -8879.12 8.28564e-10 346574 1.13285e-10 372718)
(902470 -2888.91 2.13116e-10 389022 5.35767e-11 387448)
(576841 -169192 1.5418e-10 -39851.2 -3.26679e-11 161097)
(607893 -152402 3.33701e-10 -18492.2 1.02966e-10 176820)
(638209 -138710 -8.52779e-10 196.478 -7.35483e-11 191522)
(665969 -126112 9.21247e-11 17139.8 6.8286e-11 204933)
(692137 -114684 4.68303e-10 33562.2 -2.6479e-11 217710)
(716274 -104536 -7.21229e-10 49165.8 -4.43169e-11 229632)
(738875 -95301.6 -3.84585e-10 64779 -7.06474e-11 241096)
(759774 -87009.4 8.68319e-10 80393.5 5.61404e-11 252050)
(779241 -79422.6 4.91985e-10 96450.6 -4.11644e-11 262707)
(797247 -72466.2 -6.43158e-10 113102 -8.47389e-11 273104)
(813904 -65978.3 -7.36398e-10 130635 -1.4581e-10 283362)
(829251 -59843.9 2.929e-10 149284 1.77962e-11 293560)
(843250 -53926.2 5.06142e-10 169288 8.26279e-11 303761)
(856037 -48086 1.75577e-11 190984 -8.32861e-11 314106)
(867276 -42186.7 3.28631e-11 214562 2.16795e-11 324552)
(877484 -36048.5 -7.34316e-10 240617 -8.06264e-11 335430)
(885400 -29533.1 -3.62361e-10 269082 -1.09392e-11 346345)
(893102 -22333.2 -1.34085e-10 301344 -5.73827e-11 358334)
(896016 -14499.3 2.84809e-10 336209 4.9483e-11 369668)
(902413 -4722.81 2.5956e-10 377564 1.13212e-10 383993)
(640696 -218587 1.62885e-10 -73721.2 5.36497e-11 170092)
(660298 -198632 -1.49206e-10 -49472.2 -2.11109e-12 183248)
(682734 -181712 8.26588e-11 -27142.4 -7.0697e-11 196678)
(702918 -166216 -1.13689e-11 -7670.6 -7.44767e-11 208574)
(723265 -151799 5.83311e-11 11456.1 -3.35485e-11 220416)
(742152 -138957 -2.06665e-10 29153.9 -4.114e-11 231392)
(760501 -127115 -2.5913e-10 46696.7 -7.71628e-11 242159)
(777672 -116417 -1.21685e-10 63876.1 -6.99632e-11 252464)
(794019 -106552 5.29718e-11 81264.8 3.3856e-11 262585)
(809318 -97452.8 2.2689e-10 98981.4 1.31806e-10 272490)
(823668 -88916.9 -3.95437e-10 117355 -8.41554e-11 282307)
(837020 -80803.7 2.52674e-10 136616 7.29933e-11 292091)
(849307 -72939.1 5.93162e-10 157017 5.75218e-11 301897)
(860617 -65141.8 -2.3972e-10 178891 -6.92669e-11 311853)
(870604 -57232.9 -5.48552e-10 202425 -5.26161e-11 321909)
(879747 -48970.6 -3.43286e-10 228194 -6.63133e-11 332382)
(886811 -40170.4 2.43451e-10 256120 -1.26474e-11 342879)
(893810 -30412.7 2.93829e-10 287538 5.92853e-11 354404)
(896310 -19765.2 7.98912e-11 321250 1.27234e-11 365268)
(902328 -6458.72 -1.78925e-10 361000 -1.09553e-10 378999)
(719130 -251707 3.13402e-10 -112668 -5.46272e-11 181938)
(724929 -231693 1.48553e-10 -86137.7 -1.96193e-10 191637)
(738138 -213513 -3.3686e-10 -59673.4 5.86086e-11 203539)
(749074 -197013 -1.5279e-10 -37531.1 -6.15171e-12 213463)
(762389 -181024 5.31441e-10 -15301.4 6.36359e-11 224126)
(774813 -166690 -2.99604e-10 4828.51 9.56426e-11 233892)
(787917 -153210 -3.27696e-10 24642.5 -8.87355e-11 243768)
(800459 -140909 2.70746e-10 43694.4 -5.15374e-11 253246)
(812907 -129435 -1.30965e-10 62675.5 5.57778e-11 262675)
(824814 -118755 -7.69692e-12 81673.6 6.12245e-11 271946)
(836253 -108656 -2.9337e-10 101049 -2.70611e-11 281191)
(847078 -98985 -3.39327e-10 121036 -1.69441e-10 290434)
(857184 -89549.6 1.02668e-09 141894 1.24624e-10 299723)
(866607 -80137.2 1.22054e-10 163951 5.98729e-11 309167)
(874982 -70537.8 -2.02965e-10 187388 -5.07394e-11 318711)
(882748 -60456.6 1.5492e-10 212753 2.88633e-11 328650)
(888703 -49671 -6.74784e-10 239954 -1.64873e-10 338597)
(894776 -37660.4 2.80142e-10 270251 8.54402e-11 349508)
(896727 -24506.6 -1.29091e-10 302443 -3.61181e-11 359751)
(902225 -8039.3 6.02463e-11 340075 1.96047e-11 372690)
(806958 -266390 -1.45973e-10 -152117 -1.87985e-10 196452)
(797692 -249643 -2.26909e-10 -125094 1.44396e-10 201780)
(801187 -232314 -2.27773e-10 -94832.8 6.96881e-11 211906)
(801862 -216890 -1.71563e-10 -70503.4 -1.83381e-10 219408)
(807404 -200960 3.75949e-10 -45380.1 2.74843e-10 228607)
(812567 -186507 3.90431e-10 -22870.8 7.04434e-11 236909)
(819711 -172548 6.14152e-10 -790.222 4.54832e-11 245676)
(826977 -159598 -7.76025e-10 20223.9 -1.37012e-10 254160)
(834932 -147330 -5.12649e-10 40904.8 -1.08334e-11 262751)
(842926 -135753 -5.61387e-11 61322.9 -1.35677e-10 271275)
(850983 -124678 7.35444e-10 81836.4 8.23127e-11 279846)
(858869 -113957 -1.40495e-10 102676 -1.28783e-10 288463)
(866428 -103398 -4.35693e-10 124094 -6.26764e-11 297156)
(873641 -92772.6 2.02548e-10 146402 9.85432e-11 306013)
(880124 -81853.3 -2.87794e-10 169766 -5.41523e-11 314967)
(886266 -70305 -1.53628e-10 194693 -3.35209e-11 324288)
(890913 -57877.3 -6.09459e-11 221069 -2.48156e-11 333594)
(895886 -43961.6 3.14848e-10 250056 8.32058e-11 343783)
(897195 -28652.1 3.83221e-10 280442 1.26415e-10 353291)
(902078 -9442.67 -3.01784e-10 315514 -2.04758e-10 365278)
(898829 -262308 -6.39202e-11 -187201 5.96162e-11 213488)
(874572 -252118 1.29675e-10 -161978 7.22202e-11 213778)
(868791 -237763 6.64532e-10 -128862 8.39965e-11 221979)
(859076 -225384 -1.05679e-09 -102891 -2.1239e-10 226855)
(856625 -211202 -7.32592e-11 -75403.7 8.17513e-11 234367)
(854283 -197940 7.10196e-11 -50663.5 -7.76567e-11 241086)
(855083 -184658 7.51144e-10 -26497.3 2.38742e-10 248576)
(856746 -171977 3.00398e-10 -3585.93 3.11927e-11 255948)
(859827 -159714 -4.13422e-10 18712.2 -1.91747e-10 263562)
(863561 -147910 -1.81622e-10 40481.8 -9.05989e-11 271213)
(867887 -136449 -2.93867e-10 62050.6 -3.86103e-11 278981)
(872505 -125199 7.78165e-11 83652 4.02961e-11 286847)
(877204 -113988 2.53656e-10 105523 1.19441e-10 294818)
(881914 -102584 0 127959 0 302962)
(886235 -90754.7 5.3768e-11 151103 -4.41654e-11 311201)
(890504 -78135.8 2.93946e-10 175414 7.21255e-11 319775)
(893629 -64459.7 -1.42555e-10 200746 -2.18516e-11 328313)
(897302 -49049.2 -5.2854e-10 228142 -1.8667e-10 337633)
(897838 -32011.1 4.48176e-10 256387 1.6202e-10 346267)
(901940 -10596.3 -1.36289e-10 288450 -1.20803e-10 357117)
(988358 -240013 6.37307e-10 -214384 7.94574e-11 232192)
(950461 -238945 -5.06855e-10 -194054 -1.1053e-10 226922)
(936367 -229620 4.58363e-10 -160999 2.19776e-10 232610)
(917090 -221907 1.50422e-10 -134638 6.81505e-11 234736)
(906725 -211283 -1.17192e-09 -106317 -4.33936e-10 240123)
(897158 -200577 2.73743e-10 -80089.2 1.2308e-10 245121)
(891499 -189281 3.0845e-10 -54437.4 3.92254e-11 251118)
(887523 -177942 1.10411e-09 -29895.4 3.02715e-10 257288)
(885577 -166610 -2.88395e-10 -6074.57 -3.84263e-11 263851)
(884926 -155356 -8.05799e-11 17099.4 6.15265e-11 270608)
(885380 -144163 7.82515e-11 39860.4 -5.53805e-11 277572)
(886607 -132940 -7.72832e-11 62406.1 4.84835e-11 284704)
(888330 -121559 8.96751e-11 84926.5 1.25145e-10 291977)
(890433 -109806 1.03315e-09 107677 2.60558e-10 299433)
(892499 -97458.1 -4.39911e-10 130762 -1.41196e-10 306978)
(894810 -84143 -8.45563e-10 154574 -2.26967e-10 314815)
(896345 -69587.7 6.93437e-10 178926 2.31829e-10 322582)
(898655 -53061.9 1.35099e-10 204720 4.17409e-11 331013)
(898404 -34686.5 -3.98444e-10 230725 -1.584e-10 338739)
(901722 -11533.9 1.1903e-10 259532 7.17363e-11 348376)
(1.07207e+06 -203656 -5.87644e-10 -229115 -2.31937e-10 252888)
(1.0235e+06 -212991 -2.07992e-10 -213715 4.26962e-11 242936)
(1.0021e+06 -210896 1.87075e-10 -183936 -4.70811e-11 245450)
(975387 -208410 6.68894e-10 -157635 1.31453e-10 245325)
(957522 -202540 -4.69164e-10 -129668 -8.77527e-11 248356)
(941601 -195105 -3.50701e-10 -102630 3.44384e-11 251691)
(929759 -186508 0 -76209.3 0 256065)
(920396 -177151 5.52675e-10 -50735 1.70084e-10 260898)
(913480 -167352 8.05195e-10 -26076.3 2.84663e-10 266221)
(908409 -157233 2.93374e-10 -2164.47 4.66949e-11 271873)
(904872 -146863 -5.13171e-10 21167.4 -1.5715e-10 277812)
(902536 -136199 -8.7403e-10 44086.2 -1.60548e-10 283987)
(901075 -125149 -4.29805e-10 66740.5 -2.01029e-10 290345)
(900345 -113524 8.26122e-10 89339.3 1.85755e-10 296905)
(899928 -101118 9.16727e-10 111939 3.12594e-10 303560)
(900050 -87559.2 -4.36091e-10 134851 -1.5556e-10 310470)
(899789 -72581 -1.59549e-10 157841 -7.16482e-11 317289)
(900523 -55428 5.69211e-10 181635 2.30616e-10 324647)
(899332 -36242.5 -5.21313e-10 205018 -2.30287e-10 331305)
(901622 -12083.7 1.07112e-12 230179 7.37292e-13 339540)
(1.13815e+06 -153823 4.75416e-10 -237421 1.27772e-10 270219)
(1.08871e+06 -170229 -3.59609e-10 -225698 -7.22295e-11 258903)
(1.05908e+06 -178524 1.27147e-11 -205850 -9.03611e-11 255968)
(1.02786e+06 -182757 -1.81104e-10 -182574 3.48709e-11 253587)
(1.00261e+06 -183780 -3.33154e-10 -157306 2.50507e-12 253592)
(980814 -181682 -2.91919e-10 -130962 -1.72974e-10 254956)
(962993 -177441 -2.43272e-10 -104335 -2.68547e-10 257597)
(948460 -171463 -1.7246e-11 -77971.6 1.32008e-11 261146)
(936878 -164239 1.85061e-11 -52108.6 -1.02049e-11 265431)
(927738 -156052 5.78283e-10 -26887.4 1.01598e-10 270255)
(920625 -147098 7.31347e-10 -2307.34 3.02422e-10 275495)
(915158 -137445 -4.6113e-10 21690.5 -2.2791e-10 281055)
(910952 -127079 -7.28077e-10 45171.1 -2.73664e-10 286837)
(907810 -115872 -4.77046e-10 68274.1 -1.66472e-10 292825)
(905303 -103656 1.94802e-10 90994.2 9.49817e-11 298889)
(903597 -90086.8 9.14365e-12 113556 1.01171e-12 305146)
(901873 -74910.1 -2.59677e-10 135664 -9.04119e-11 311261)
(901349 -57366.1 5.01106e-12 157871 1.24499e-12 317766)
(899561 -37600.9 2.52155e-10 178974 1.16919e-10 323561)
(901259 -12597.8 -6.78479e-11 200753 -5.26216e-11 330603)
(1.18223e+06 -112557 1.72712e-10 -226150 1.00255e-10 286825)
(1.13823e+06 -126398 3.439e-10 -211601 2.35402e-10 277990)
(1.10208e+06 -142607 3.56926e-10 -199501 1.04591e-10 270774)
(1.0693e+06 -151598 9.63757e-11 -181297 1.57425e-11 266401)
(1.04076e+06 -157411 1.26783e-10 -159807 1.69196e-10 264285)
(1.01586e+06 -159780 3.25267e-11 -136494 -1.10862e-10 263808)
(994630 -159502 -6.64415e-10 -112085 -2.46516e-10 264764)
(976604 -157022 -2.37431e-10 -87355.4 -5.30354e-11 266775)
(961522 -152778 2.3632e-10 -62668.7 5.13129e-11 269656)
(948967 -147091 -2.90146e-10 -38311.1 -5.85293e-11 273197)
(938591 -140191 7.39491e-10 -14409.7 3.24181e-10 277254)
(930060 -132199 4.53399e-10 8979.64 1.78605e-10 281712)
(923026 -123151 -6.65117e-11 31821.7 5.08778e-11 286454)
(917299 -112973 1.67092e-10 54154.4 1.01878e-10 291436)
(912496 -101543 2.64475e-10 75891.1 7.65454e-11 296516)
(908740 -88569.4 -1.85558e-11 97135.3 -5.02667e-12 301762)
(905340 -73838.8 1.57876e-10 117529 8.12907e-11 306861)
(903310 -56651.3 8.38507e-11 137408 2.582e-11 312215)
(900613 -37191 -2.52631e-10 155558 -1.21525e-10 316851)
(901200 -12493.6 -1.24265e-10 173368 -1.37836e-10 322370)
(1.17913e+06 -79544 -1.18197e-09 -199991 -3.82993e-10 293742)
(1.14718e+06 -94850.7 -5.80826e-10 -196675 -3.36134e-10 285153)
(1.11458e+06 -112317 5.08331e-10 -186693 2.69027e-11 278367)
(1.08496e+06 -124230 -2.81599e-10 -171976 1.81358e-10 273896)
(1.05798e+06 -132740 -5.41917e-10 -153456 -2.72586e-10 271358)
(1.03376e+06 -137911 6.55596e-10 -132782 1.63712e-10 270293)
(1.01237e+06 -140309 -6.06457e-24 -110683 -2.44742e-24 270507)
(993609 -140342 -6.9319e-10 -87930.7 -3.79927e-10 271703)
(977339 -138392 -1.30848e-24 -64946.3 -1.01785e-24 273718)
(963295 -134756 -1.83e-10 -42078.1 -1.36726e-10 276365)
(951239 -129653 -1.78999e-10 -19529.2 -1.28396e-10 279513)
(940924 -123211 2.82464e-10 2562.48 6.9477e-11 283046)
(932082 -115487 -2.77034e-10 24086 -7.26924e-11 286850)
(924565 -106440 -8.07704e-24 44990.4 -2.4942e-24 290867)
(918069 -95984.8 2.67537e-10 65123.8 8.34518e-11 294958)
(912706 -83885.6 -2.63432e-10 84479.4 -9.11755e-11 299156)
(907933 -69977.4 -1.60694e-10 102660 -8.60935e-11 303178)
(904624 -53653.5 2.5645e-10 119821 1.12093e-10 307334)
(901180 -35147.9 -3.14819e-24 134783 -1.55294e-24 310789)
(900930 -11774.9 -7.6329e-11 148560 -7.13962e-11 314847)
(1.17805e+06 -46012.8 -2.37677e-10 -175615 -1.60633e-10 300731)
(1.14883e+06 -63525 5.47413e-10 -176535 6.71147e-11 291688)
(1.12077e+06 -82343.1 -7.17755e-10 -171032 -2.39824e-10 284922)
(1.09345e+06 -96458.8 1.91366e-10 -160511 1.89085e-10 279882)
(1.06818e+06 -107330 1.07073e-10 -145732 -3.46796e-10 276735)
(1.04476e+06 -115047 -4.07249e-24 -128301 -1.94969e-24 274939)
(1.02362e+06 -119953 1.34194e-10 -108947 -8.01099e-11 274403)
(1.0046e+06 -122406 -3.13333e-10 -88513.7 -7.99649e-11 274826)
(987710 -122704 -1.82422e-10 -67486 -1.47507e-10 276067)
(972773 -121113 -4.29442e-24 -46297.5 -1.72365e-24 277943)
(959644 -117831 -1.76911e-10 -25231.4 -1.31192e-10 280324)
(948143 -112992 -2.98963e-24 -4509.84 -8.08248e-25 283090)
(938073 -106667 -6.2322e-10 15680.9 -3.12289e-10 286126)
(929326 -98843.1 -3.38398e-10 35206.7 -2.18245e-10 289360)
(921671 -89470.8 1.03204e-10 53851.8 -1.24954e-11 292657)
(915214 -78367.7 1.01251e-10 71511.7 9.16532e-13 296018)
(909545 -65421.8 -1.62391e-10 87750 -9.07824e-11 299188)
(905400 -50121.7 -8.0442e-26 102563 3.14535e-26 302389)
(901576 -32754.7 -1.57718e-10 114820 -8.162e-11 304919)
(900738 -10934.5 -3.32052e-10 125222 -3.69467e-10 307788)
(1.16812e+06 -20176.4 9.55825e-11 -152759 -1.39258e-10 304609)
(1.14295e+06 -37385 -3.63768e-10 -157247 -1.37392e-10 295711)
(1.11927e+06 -56385.2 -1.50299e-24 -154473 -7.36588e-25 289439)
(1.09489e+06 -71530 1.71446e-10 -147030 -7.00824e-11 284357)
(1.07203e+06 -83868.8 1.78161e-10 -135219 1.78725e-10 281044)
(1.05017e+06 -93339.3 2.89011e-24 -120583 8.60952e-25 278877)
(1.03002e+06 -100123 3.84153e-25 -103788 -1.05008e-24 277869)
(1.01144e+06 -104479 -1.37112e-10 -85663.3 6.78346e-11 277733)
(994585 -106625 0 -66711 0 278362)
(979351 -106780 -7.2534e-24 -47400.3 -3.11239e-24 279585)
(965686 -105112 0 -28062.2 0 281287)
(953479 -101746 5.75447e-10 -8976.26 1.69103e-10 283351)
(942602 -96757.8 1.1192e-10 9614.91 -3.1471e-11 285665)
(932994 -90153.9 -4.45202e-10 27510.5 -2.02827e-10 288151)
(924492 -81915.1 -1.66523e-10 44443.7 -1.05723e-10 290681)
(917206 -71907.8 -2.67908e-10 60228.7 -1.02925e-10 293230)
(910851 -60069.8 -1.01389e-10 74404.4 -1.62388e-11 295577)
(906037 -45987.2 2.61123e-10 86839 1.21256e-10 297863)
(901923 -29984 2.58646e-10 96471.9 1.32851e-10 299518)
(900562 -9984.84 -2.57303e-10 103720 -2.94956e-10 301285)
(1.15247e+06 1468.16 -7.18431e-11 -131140 2.28748e-10 306399)
(1.13113e+06 -15344.5 -1.52608e-10 -137968 -1.87163e-10 297947)
(1.11162e+06 -33964.6 -5.10152e-10 -137535 -3.13694e-10 292226)
(1.09031e+06 -49434.2 -1.8195e-10 -132887 5.99709e-11 287226)
(1.07009e+06 -62557.7 5.03683e-10 -123860 2.87455e-10 283870)
(1.05016e+06 -73143.3 3.30042e-10 -111931 1.05558e-10 281469)
(1.03144e+06 -81257.6 -3.97167e-24 -97652.8 -2.36023e-24 280136)
(1.01379e+06 -87056.9 -3.15236e-10 -81843.9 -9.56727e-11 279584)
(997484 -90681.3 3.08166e-10 -65003.4 9.26876e-11 279744)
(982470 -92292.9 -1.70256e-10 -47627.6 -1.40863e-10 280453)
(968774 -92024 -1.69631e-10 -30081.5 -1.33826e-10 281608)
(956343 -89980.2 1.20301e-10 -12690 -3.55031e-11 283096)
(945114 -86233.9 1.6771e-10 4259.75 1.20457e-10 284812)
(935065 -80806.3 0 20513.2 0 286673)
(926102 -73701.4 0 35763.5 0 288560)
(918334 -64830.7 -2.69595e-10 49759.5 -1.08071e-10 290428)
(911590 -54177.9 4.7488e-24 62025.5 2.25891e-24 292085)
(906364 -41426.7 1.02687e-10 72325.3 2.98219e-11 293607)
(902130 -26927.5 0 79675.7 0 294542)
(900399 -8936.6 -2.59763e-10 84246.9 -2.97065e-10 295394)