/*--------------------------------*- C++ -*----------------------------------*\
| =========                 |                                                 |
| \\      /  F ield         | foam-extend: Open Source CFD                    |
|  \\    /   O peration     | Version:     4.1                                |
|   \\  /    A nd           | Web:         http://www.foam-extend.org         |
|    \\/     M anipulation  |                                                 |
\*---------------------------------------------------------------------------*/
FoamFile
{
    version     2.0;
    format      ascii;
    class       volScalarField;
    location    "9";
    object      sigmaHyd;
}
// * * * * * * * * * * * * * * * * * * * * * * * * * * * * * * * * * * * * * //

dimensions      [1 -1 -2 0 0 0 0];

internalField   nonuniform List<scalar> 
1000
(
-491732
-470723
-465213
-455257
-450269
-444595
-440967
-437194
-435410
-430184
-631898
-584046
-562086
-536783
-520591
-505028
-493486
-482689
-475041
-464150
-766794
-693129
-655363
-615323
-588409
-563360
-544325
-526692
-513647
-497015
-893132
-795267
-742662
-688796
-651778
-617844
-591663
-567814
-549449
-528494
-1.00785e+06
-887998
-821916
-755504
-709319
-667329
-634664
-605199
-581980
-557315
-1.10812e+06
-969043
-891163
-813780
-759566
-710544
-672180
-637865
-610311
-582658
-1.19147e+06
-1.0364e+06
-948700
-862194
-801299
-746434
-703319
-664989
-633774
-603757
-1.25586e+06
-1.08843e+06
-993155
-899610
-833555
-774181
-727384
-685967
-651877
-620114
-1.29962e+06
-1.12378e+06
-1.02334e+06
-924991
-855419
-792974
-743663
-700148
-664079
-631157
-1.32182e+06
-1.14202e+06
-1.03917e+06
-938499
-867204
-803226
-752644
-708058
-670968
-637445
487832
320447
210519
113051
39673.1
-23624.2
-74907.1
-119602
-156933
-191076
465057
301717
194147
99085
27484.9
-34213.4
-84166.2
-127732
-163984
-197492
420716
265999
163728
73569.7
5566.41
-52990.9
-100364
-141770
-175968
-208289
355408
213362
118866
35902.2
-26825.7
-80771
-124366
-162594
-193811
-224346
270963
145292
60863.7
-12794.9
-68704.6
-116688
-155425
-189536
-216979
-245108
169529
63481.9
-8888.53
-71380.7
-119111
-159931
-192850
-221994
-244979
-270061
53715.7
-29979.7
-88625.8
-138388
-176816
-209460
-235806
-259222
-277292
-298595
-73561
-132739
-176334
-212111
-240310
-263954
-283059
-300137
-312809
-329648
-209139
-242276
-269914
-290840
-308242
-322320
-333915
-344037
-351469
-362220
-349662
-355836
-366942
-372458
-378604
-382743
-386370
-389413
-390856
-395786
-218807
-245248
-268545
-290178
-310102
-328768
-346409
-363236
-379464
-395251
-410755
-426137
-441491
-457043
-472738
-489081
-505492
-523520
-540615
-562206
-224090
-249193
-271725
-292534
-311907
-330038
-347272
-363725
-379640
-395140
-410388
-425530
-440657
-455987
-471462
-487579
-503758
-521534
-538370
-559647
-232695
-255407
-276642
-296014
-314470
-331691
-348250
-364073
-379466
-394484
-409300
-424031
-438767
-453709
-468797
-484511
-500276
-517593
-533964
-554657
-245689
-264691
-284090
-301274
-318379
-334232
-349786
-364671
-379290
-393597
-407777
-421909
-436074
-450454
-464979
-480108
-495270
-511918
-527609
-547442
-262800
-276809
-294001
-308335
-323738
-337845
-352109
-365800
-379419
-392811
-406164
-419516
-432934
-446575
-460360
-474717
-489084
-504845
-519640
-538330
-283764
-291459
-306087
-316922
-330210
-342202
-354866
-367120
-379529
-391841
-404222
-416669
-429226
-442019
-454952
-468416
-481859
-496575
-510310
-527623
-308372
-308791
-320636
-327680
-338529
-348235
-359054
-369703
-380700
-391752
-402973
-414335
-425848
-437611
-449513
-461898
-474229
-487692
-500164
-515836
-335389
-327777
-335993
-339062
-346844
-354063
-362727
-371639
-381118
-390878
-400937
-411239
-421744
-432514
-443413
-454733
-465951
-478129
-489289
-503210
-365282
-350908
-354539
-354359
-358737
-363554
-369872
-376853
-384542
-392706
-401284
-410203
-419387
-428863
-438476
-448457
-458306
-468935
-478551
-490447
-390317
-373970
-369731
-366292
-366300
-368269
-372085
-377211
-383400
-390369
-397938
-405968
-414320
-422970
-431729
-440766
-449599
-458995
-467365
-477538
-414303
-401541
-391117
-384801
-381745
-381057
-382436
-385341
-389503
-394617
-400479
-406917
-413767
-420963
-428301
-435879
-443243
-450978
-457674
-465646
-424295
-411887
-402086
-395627
-391961
-390423
-390732
-392460
-395370
-399194
-403741
-408844
-414339
-420141
-426050
-432114
-437924
-443926
-448917
-454779
-434389
-421327
-411554
-404273
-399729
-397134
-396360
-396970
-398764
-401473
-404912
-408908
-413293
-417964
-422726
-427581
-432161
-436784
-440438
-444582
-439991
-427138
-418079
-410738
-405952
-402822
-401367
-401169
-402079
-403845
-406304
-409284
-412628
-416218
-419872
-423555
-426944
-430246
-432638
-435189
-442577
-430368
-422104
-414881
-410035
-406566
-404641
-403844
-404075
-405098
-406767
-408916
-411395
-414084
-416808
-419507
-421900
-424099
-425449
-426680
-442766
-431428
-424081
-417263
-412615
-409076
-406917
-405736
-405478
-405924
-406949
-408399
-410136
-412039
-413947
-415782
-417304
-418546
-419011
-419132
-440985
-430728
-424313
-418044
-413721
-410269
-408034
-406631
-406041
-406065
-406597
-407494
-408632
-409892
-411132
-412257
-413069
-413537
-413301
-412550
-437718
-428629
-423157
-417557
-413674
-410456
-408287
-406808
-406026
-405761
-405927
-406396
-407056
-407797
-408491
-409037
-409276
-409128
-408352
-406940
-433266
-425401
-420858
-415997
-412626
-409742
-407745
-406303
-405444
-405007
-404925
-405081
-405381
-405722
-405994
-406094
-405897
-405290
-404129
-402258
-427924
-421296
-417665
-413592
-410787
-408319
-406581
-405271
-404433
-403924
-403692
-403637
-403680
-403726
-403685
-403456
-402943
-402015
-400606
-398455
-421907
-416509
-413773
-410515
-408315
-406320
-404907
-403806
-403067
-402569
-402273
-402095
-401969
-401815
-401559
-401107
-400390
-399264
-397730
-395455
-415385
-411212
-409353
-406929
-405362
-403887
-402852
-402019
-401443
-401024
-400734
-400505
-400288
-400014
-399627
-399042
-398214
-397000
-395443
-393178
-408522
-405538
-404566
-402988
-402075
-401154
-400534
-400015
-399650
-399361
-399132
-398911
-398662
-398334
-397886
-397244
-396385
-395171
-393677
-391531
-401391
-399638
-399525
-398805
-398562
-398220
-398047
-397876
-397760
-397641
-397513
-397343
-397111
-396780
-396325
-395689
-394862
-393723
-392361
-390422
-394190
-393508
-394390
-394557
-394990
-395248
-395532
-395728
-395879
-395949
-395946
-395853
-395665
-395364
-394941
-394354
-393610
-392601
-391423
-389758
-386819
-387539
-389219
-390248
-391386
-392256
-393025
-393603
-394037
-394310
-394445
-394442
-394316
-394066
-393700
-393196
-392569
-391735
-390784
-389445
-379770
-381960
-384253
-386393
-388054
-389552
-390763
-391710
-392405
-392864
-393119
-393193
-393119
-392916
-392611
-392201
-391712
-391080
-390386
-389406
-372438
-375710
-379209
-382142
-384738
-386868
-388604
-389930
-390895
-391533
-391895
-392031
-391995
-391830
-391585
-391276
-390941
-390535
-390126
-389530
-366079
-370585
-375175
-378977
-382276
-384977
-387131
-388756
-389909
-390645
-391040
-391167
-391105
-390924
-390694
-390457
-390265
-390089
-389986
-389772
-358625
-364904
-370531
-375409
-379579
-382969
-385635
-387604
-388960
-389785
-390183
-390263
-390135
-389904
-389672
-389506
-389474
-389559
-389778
-389920
-609252
-603941
-594766
-581007
-563002
-541021
-515584
-487597
-458098
-429973
-583628
-579744
-573257
-563600
-551083
-535875
-518240
-498162
-475781
-446396
-560616
-557378
-552026
-543969
-533416
-520482
-505574
-488942
-471875
-450910
-539675
-537236
-533342
-527470
-519771
-510238
-499047
-486033
-471875
-454451
-520320
-518368
-515312
-510672
-504560
-496998
-488173
-478175
-467223
-454836
-502421
-500969
-498794
-495464
-491023
-485458
-478752
-471123
-462123
-453183
-485576
-484485
-482927
-480518
-477263
-473193
-468174
-462676
-455619
-449699
-469686
-468933
-467957
-466414
-464249
-461508
-457897
-454079
-448535
-444868
-454489
-454010
-453499
-452653
-451373
-449740
-447347
-444992
-440860
-438973
-439872
-439643
-439559
-439345
-438861
-438197
-436860
-435711
-432820
-432301
-425670
-425659
-425947
-426287
-426506
-426697
-426317
-426223
-424484
-425051
-411750
-411943
-412579
-413430
-414301
-415267
-415764
-416596
-415924
-417381
-398021
-398403
-399364
-400695
-402177
-403866
-405195
-406877
-407218
-409434
-384291
-384857
-386136
-387931
-390011
-392394
-394534
-397024
-398351
-401265
-370604
-371349
-372944
-375197
-377868
-380940
-383884
-387173
-389467
-393059
-356536
-357465
-359384
-362110
-365395
-369174
-372955
-377065
-380372
-384664
-342574
-343690
-345943
-349153
-353068
-357580
-362218
-367207
-371518
-376735
-327421
-328742
-331363
-335110
-339726
-345055
-350659
-356598
-362078
-368001
-313219
-314750
-317747
-322041
-327371
-333538
-340122
-347062
-353697
-360497
-295423
-297209
-300680
-305664
-311904
-319153
-327011
-335278
-343434
-351463
)
;

boundaryField
{
    left
    {
        type            symmetryPlane;
        value           nonuniform List<scalar> 
30
(
-609252
-583628
-560616
-539675
-520320
-502421
-485576
-469686
-454489
-439872
-425670
-411750
-398021
-384291
-370604
-356536
-342574
-327421
-313219
-295423
-1.32182e+06
-1.14202e+06
-1.03917e+06
-938499
-867204
-803226
-752644
-708058
-670968
-637445
)
;
    }
    right
    {
        type            zeroGradient;
    }
    down
    {
        type            symmetryPlane;
        value           nonuniform List<scalar> 
30
(
487832
320447
210519
113051
39673.1
-23624.2
-74907.1
-119602
-156933
-191076
-218807
-245248
-268545
-290178
-310102
-328768
-346409
-363236
-379464
-395251
-410755
-426137
-441491
-457043
-472738
-489081
-505492
-523520
-540615
-562206
)
;
    }
    up
    {
        type            zeroGradient;
    }
    hole
    {
        type            zeroGradient;
    }
    frontAndBack
    {
        type            empty;
    }
}


// ************************************************************************* //
