/*--------------------------------*- C++ -*----------------------------------*\
| =========                 |                                                 |
| \\      /  F ield         | foam-extend: Open Source CFD                    |
|  \\    /   O peration     | Version:     4.1                                |
|   \\  /    A nd           | Web:         http://www.foam-extend.org         |
|    \\/     M anipulation  |                                                 |
\*---------------------------------------------------------------------------*/
FoamFile
{
    version     2.0;
    format      ascii;
    class       volScalarField;
    location    "9";
    object      sigmaEq;
}
// * * * * * * * * * * * * * * * * * * * * * * * * * * * * * * * * * * * * * //

dimensions      [1 -1 -2 0 0 0 0];

internalField   nonuniform List<scalar> 
1000
(
957160
1.09139e+06
1.19879e+06
1.28012e+06
1.31792e+06
1.33269e+06
1.33046e+06
1.31801e+06
1.30128e+06
1.27782e+06
1.19813e+06
1.21753e+06
1.26446e+06
1.31501e+06
1.33626e+06
1.34197e+06
1.33423e+06
1.31925e+06
1.29849e+06
1.27724e+06
1.43295e+06
1.34277e+06
1.32305e+06
1.33667e+06
1.33734e+06
1.33148e+06
1.31688e+06
1.29813e+06
1.27445e+06
1.25243e+06
1.6544e+06
1.46266e+06
1.37444e+06
1.34703e+06
1.32397e+06
1.30458e+06
1.28208e+06
1.25921e+06
1.23301e+06
1.21078e+06
1.85629e+06
1.57315e+06
1.4184e+06
1.3482e+06
1.29929e+06
1.26479e+06
1.23363e+06
1.20627e+06
1.17813e+06
1.15564e+06
2.03322e+06
1.67076e+06
1.45495e+06
1.34287e+06
1.26743e+06
1.21697e+06
1.17657e+06
1.1444e+06
1.11448e+06
1.09154e+06
2.18056e+06
1.75251e+06
1.48407e+06
1.33382e+06
1.23305e+06
1.16675e+06
1.11706e+06
1.07989e+06
1.0483e+06
1.02459e+06
2.29449e+06
1.81601e+06
1.50588e+06
1.32399e+06
1.20124e+06
1.12066e+06
1.06236e+06
1.02041e+06
987252
962545
2.37207e+06
1.85937e+06
1.52035e+06
1.31578e+06
1.17667e+06
1.0851e+06
1.01998e+06
974125
939685
914009
2.41096e+06
1.88088e+06
1.5269e+06
1.31036e+06
1.16241e+06
1.06477e+06
995812
947718
912534
886289
879271
582494
417133
348428
323674
328430
346163
371767
399388
427433
842356
580355
455100
418859
412094
422219
437963
458016
478145
500481
768210
577358
519875
527060
540934
557471
571789
586312
598066
613798
661476
579509
601459
649408
680954
703238
716824
727043
731793
741753
529619
593669
691448
772651
817996
844787
857789
864484
863533
868477
389605
626281
784082
889498
944608
974364
986559
990084
984443
984815
291249
681443
875869
995867
1.05656e+06
1.08754e+06
1.09848e+06
1.09901e+06
1.08952e+06
1.08559e+06
331035
759342
964440
1.0891e+06
1.15096e+06
1.18118e+06
1.19026e+06
1.18777e+06
1.17541e+06
1.16717e+06
499259
856991
1.04841e+06
1.1679e+06
1.22641e+06
1.25384e+06
1.2603e+06
1.255e+06
1.24054e+06
1.22892e+06
719323
969468
1.12669e+06
1.23142e+06
1.28177e+06
1.30383e+06
1.30639e+06
1.29724e+06
1.282e+06
1.26381e+06
456151
480064
502659
523214
541309
557202
570700
581914
590797
597366
601566
603358
602590
599210
592850
583623
570558
554669
532961
510441
518784
530987
544928
558232
570486
581611
591216
599227
605470
609846
612219
612482
610435
605985
598737
588780
575143
558820
536870
514261
618582
614690
615888
618153
621139
624495
627603
630171
631862
632411
631575
629135
624822
618473
609656
598418
583794
566743
544430
521728
734161
714925
702989
693484
686095
680439
675777
671652
667622
663269
658254
652250
644916
636016
625084
612117
596172
578162
555420
532675
850704
818987
795332
775084
757784
743187
730597
719437
709269
699550
689894
679880
669114
657299
643942
628999
611566
592511
569388
546750
959121
918537
885441
856321
830550
807939
788074
770235
754097
739033
724659
710501
696142
681247
665317
648284
629307
609219
585854
563570
1.05417e+06
1.00838e+06
968492
932364
899855
870384
844184
820349
798751
778728
759918
741829
724036
706187
687798
668789
648411
627466
604117
582491
1.13213e+06
1.08472e+06
1.04182e+06
1.00091e+06
963970
929331
898112
869283
842912
818410
795468
773644
752537
731813
711027
690109
668426
646764
623662
603031
1.19276e+06
1.14471e+06
1.10237e+06
1.05823e+06
1.01832e+06
979881
944710
911988
881813
853742
827471
802618
778806
755738
733024
710625
688050
666077
643644
624342
1.23393e+06
1.18847e+06
1.15098e+06
1.10799e+06
1.06722e+06
1.02711e+06
989111
953247
919677
888257
858777
830959
804486
779105
754495
730653
707248
685070
663479
645821
1.24989e+06
1.20367e+06
1.16798e+06
1.12849e+06
1.08922e+06
1.05045e+06
1.01296e+06
977039
942903
910559
879933
850878
823196
796745
771324
747015
723665
702073
681982
666303
1.21812e+06
1.19063e+06
1.15857e+06
1.12453e+06
1.08916e+06
1.05363e+06
1.01859e+06
984476
951591
920057
889913
861128
833621
807359
782268
758522
736132
715928
697967
684849
1.192e+06
1.16934e+06
1.14367e+06
1.11447e+06
1.08342e+06
1.05136e+06
1.01915e+06
987264
956097
925861
896695
868666
841799
816156
791778
768924
747753
729100
713288
702518
1.16233e+06
1.14496e+06
1.1241e+06
1.09912e+06
1.07205e+06
1.04341e+06
1.01417e+06
984762
955670
927152
899424
872628
846879
822320
799092
777518
757883
741006
727415
718930
1.13025e+06
1.11719e+06
1.10078e+06
1.07988e+06
1.05674e+06
1.03155e+06
1.0054e+06
978667
951898
925385
899409
874172
849863
826691
804879
784801
766839
751783
740308
733893
1.09728e+06
1.0879e+06
1.07524e+06
1.05795e+06
1.03836e+06
1.01646e+06
993336
969345
945043
920742
896765
873358
850763
829242
809081
790687
774513
761302
751832
747262
1.06416e+06
1.05785e+06
1.04839e+06
1.03436e+06
1.01802e+06
999221
979045
957786
936010
914032
892201
870792
850087
830382
812007
795390
781026
769604
761961
758975
1.0316e+06
1.02778e+06
1.021e+06
1.00982e+06
996384
980465
963083
944493
925244
905642
886049
866751
848056
830279
813778
798983
786413
776693
770682
769013
1.00002e+06
998169
993613
984929
974094
960832
946085
930070
913304
896082
878759
861625
844997
829198
814598
801616
790776
782632
778040
777423
969635
969346
966631
960117
951594
940769
928487
914933
900581
885706
870646
855687
841141
827327
814614
803400
794197
787490
784100
784284
940558
941505
940319
935702
929252
920665
910689
899475
887449
874861
862025
849213
836724
824863
813986
804465
796782
791358
788962
789716
912790
914739
914852
911920
907346
900826
893009
884013
874214
863833
853157
842434
831945
821975
812857
804929
798638
794341
792740
793860
886278
889124
890354
888946
886103
881511
875723
868829
861152
852884
844280
835564
826993
818824
811364
804915
799878
796552
795564
796872
860970
864604
866917
866969
865753
862982
859107
854199
848529
842263
835622
828806
822042
815563
809641
804540
800615
798112
797573
798919
836774
841388
844655
846098
846485
845460
843404
840374
836591
832200
827391
822341
817250
812325
807803
803912
800956
799135
798901
800163
813838
819067
823650
826743
828641
829301
828953
827675
825634
822962
819820
816368
812783
809247
805967
803136
801006
799737
799689
800774
791724
800525
804328
809229
812470
814797
816036
816382
815917
814776
813100
811038
808753
806412
804194
802265
800826
799999
800046
800891
771506
779695
787352
793433
798474
802351
805151
806948
807856
807998
807521
806576
805327
803934
802563
801355
800472
799997
800099
800696
752873
763214
772375
780281
787059
792493
796703
799744
801747
802853
803228
803046
802492
801739
800959
800287
799854
799696
799889
800291
737493
750040
761366
771167
779511
786298
791618
795546
798236
799860
800626
800749
800452
799946
799431
799055
798946
799097
799518
799926
867443
893250
938475
996647
1.05991e+06
1.12109e+06
1.17444e+06
1.21589e+06
1.24409e+06
1.25492e+06
851695
874350
914449
966922
1.02537e+06
1.08369e+06
1.13673e+06
1.17971e+06
1.21108e+06
1.22594e+06
838935
858758
893978
940492
992998
1.04635e+06
1.09659e+06
1.13961e+06
1.17521e+06
1.19842e+06
828376
845637
876486
917655
964779
1.01337e+06
1.06003e+06
1.10086e+06
1.13578e+06
1.16375e+06
818944
833935
860841
897066
939050
983044
1.0262e+06
1.06528e+06
1.09905e+06
1.12866e+06
810400
823407
846845
878636
915825
955261
994403
1.03089e+06
1.06264e+06
1.09271e+06
802186
813472
833881
861762
894654
929978
965364
999206
1.02855e+06
1.05748e+06
794068
803865
821627
846042
875026
906493
938211
969261
996225
1.02346e+06
785745
794262
809744
831147
856692
884702
913062
941316
965897
991001
777002
784419
797930
816702
839202
864088
889389
914952
937307
960198
767611
774090
785918
802427
822286
844410
866987
890019
910296
931014
757368
763050
773447
788014
805597
825302
845492
866225
884631
903332
746017
751028
760228
773162
788824
806457
824603
843308
860074
876972
733358
737816
746032
757617
771693
787600
804053
821045
836438
851810
718992
723008
730448
740968
753797
768343
783474
799111
813453
827595
702796
706477
713342
723078
734999
748558
762763
777451
791126
804488
683944
687406
693919
703182
714580
727594
741330
755593
769008
782294
662781
666143
672528
681638
692909
705823
719582
733853
747576
760858
637068
640495
647068
656480
668194
681688
696211
711314
726146
740410
609459
613116
620171
630303
642985
657684
673639
690338
706937
722998
)
;

boundaryField
{
    left
    {
        type            symmetryPlane;
        value           nonuniform List<scalar> 
30
(
866843
851169
838471
827972
818595
810098
801926
793844
785551
776836
767468
757246
745914
733273
718924
702744
683907
662759
637058
609458
2.40577e+06
1.87918e+06
1.52651e+06
1.31034e+06
1.16236e+06
1.06456e+06
995449
947231
911975
885665
)
;
    }
    right
    {
        type            calculated;
        value           nonuniform List<scalar> 
30
(
509020
512825
520285
531227
545303
562149
581099
601724
623075
644744
665279
684026
701852
718410
733509
746992
758804
768921
777393
784300
789764
793927
796948
798996
800234
800834
800937
800731
800313
799978
)
;
    }
    down
    {
        type            symmetryPlane;
        value           nonuniform List<scalar> 
30
(
878290
582198
414223
342205
315289
319545
337790
364340
393029
421854
451696
476684
500012
521137
539663
555885
569639
581052
590094
596790
601094
602972
602277
598961
592657
583480
570460
554611
532936
510438
)
;
    }
    up
    {
        type            calculated;
        value           nonuniform List<scalar> 
30
(
608588
612241
619299
629438
642133
656857
672839
689593
706223
722384
736936
749581
760977
770843
779250
786088
791451
795411
798127
799769
800549
800681
800393
799895
799390
799022
798924
799081
799509
799888
)
;
    }
    hole
    {
        type            calculated;
        value           nonuniform List<scalar> 
20
(
927832
1.1907e+06
1.44366e+06
1.68061e+06
1.89575e+06
2.08383e+06
2.24019e+06
2.36097e+06
2.44314e+06
2.48445e+06
908702
867073
783665
661093
502642
312351
95104.4
143632
397898
661446
)
;
    }
    frontAndBack
    {
        type            empty;
    }
}


// ************************************************************************* //
