/*--------------------------------*- C++ -*----------------------------------*\
| =========                 |                                                 |
| \\      /  F ield         | foam-extend: Open Source CFD                    |
|  \\    /   O peration     | Version:     4.1                                |
|   \\  /    A nd           | Web:         http://www.foam-extend.org         |
|    \\/     M anipulation  |                                                 |
\*---------------------------------------------------------------------------*/
FoamFile
{
    version     2.0;
    format      ascii;
    class       vectorField;
    location    "9";
    object      solidsCellD_iteration15;
}
// * * * * * * * * * * * * * * * * * * * * * * * * * * * * * * * * * * * * * //


1000
(
(4.71805e-06 -2.03204e-06 0)
(4.44758e-06 -1.88907e-06 0)
(4.27404e-06 -1.79756e-06 0)
(4.17364e-06 -1.75382e-06 0)
(4.12359e-06 -1.7373e-06 0)
(4.11028e-06 -1.74184e-06 0)
(4.12399e-06 -1.76009e-06 0)
(4.15802e-06 -1.78849e-06 0)
(4.20727e-06 -1.82382e-06 0)
(4.26874e-06 -1.86389e-06 0)
(4.26534e-06 -2.21951e-06 0)
(3.97737e-06 -2.11921e-06 0)
(3.79288e-06 -2.05463e-06 0)
(3.68444e-06 -2.02917e-06 0)
(3.62821e-06 -2.02475e-06 0)
(3.60937e-06 -2.03783e-06 0)
(3.61785e-06 -2.06216e-06 0)
(3.64647e-06 -2.09511e-06 0)
(3.68995e-06 -2.13421e-06 0)
(3.74431e-06 -2.17657e-06 0)
(3.79521e-06 -2.39723e-06 0)
(3.50107e-06 -2.34464e-06 0)
(3.31279e-06 -2.31023e-06 0)
(3.20093e-06 -2.30499e-06 0)
(3.14141e-06 -2.31381e-06 0)
(3.11881e-06 -2.33603e-06 0)
(3.12301e-06 -2.36674e-06 0)
(3.14676e-06 -2.40425e-06 0)
(3.18472e-06 -2.447e-06 0)
(3.23294e-06 -2.49189e-06 0)
(3.31111e-06 -2.56203e-06 0)
(3.02311e-06 -2.55949e-06 0)
(2.83887e-06 -2.55678e-06 0)
(2.7285e-06 -2.57268e-06 0)
(2.66872e-06 -2.59526e-06 0)
(2.64421e-06 -2.62689e-06 0)
(2.64515e-06 -2.66402e-06 0)
(2.6645e-06 -2.70611e-06 0)
(2.69725e-06 -2.75231e-06 0)
(2.7393e-06 -2.7999e-06 0)
(2.81637e-06 -2.71067e-06 0)
(2.54672e-06 -2.75775e-06 0)
(2.37433e-06 -2.78648e-06 0)
(2.2705e-06 -2.82327e-06 0)
(2.21353e-06 -2.85939e-06 0)
(2.18891e-06 -2.90026e-06 0)
(2.18761e-06 -2.94363e-06 0)
(2.20307e-06 -2.99017e-06 0)
(2.23078e-06 -3.03968e-06 0)
(2.26663e-06 -3.09003e-06 0)
(2.31339e-06 -2.84011e-06 0)
(2.07403e-06 -2.93364e-06 0)
(1.9211e-06 -2.99182e-06 0)
(1.82853e-06 -3.04814e-06 0)
(1.77725e-06 -3.0969e-06 0)
(1.75428e-06 -3.14635e-06 0)
(1.75178e-06 -3.19549e-06 0)
(1.76379e-06 -3.24615e-06 0)
(1.7865e-06 -3.29867e-06 0)
(1.81599e-06 -3.35174e-06 0)
(1.80462e-06 -2.94743e-06 0)
(1.60614e-06 -3.08167e-06 0)
(1.47936e-06 -3.16568e-06 0)
(1.40237e-06 -3.23912e-06 0)
(1.35945e-06 -3.29893e-06 0)
(1.33977e-06 -3.35586e-06 0)
(1.3369e-06 -3.41002e-06 0)
(1.34582e-06 -3.46429e-06 0)
(1.36349e-06 -3.51944e-06 0)
(1.38651e-06 -3.57496e-06 0)
(1.29175e-06 -3.03024e-06 0)
(1.14308e-06 -3.19717e-06 0)
(1.04817e-06 -3.30191e-06 0)
(9.90425e-07 -3.38906e-06 0)
(9.581e-07 -3.45775e-06 0)
(9.4304e-07 -3.52071e-06 0)
(9.40442e-07 -3.57892e-06 0)
(9.4655e-07 -3.63612e-06 0)
(9.59173e-07 -3.69337e-06 0)
(9.75643e-07 -3.75093e-06 0)
(7.76204e-07 -3.08654e-06 0)
(6.84159e-07 -3.27632e-06 0)
(6.25434e-07 -3.39555e-06 0)
(5.89612e-07 -3.49233e-06 0)
(5.69462e-07 -3.56722e-06 0)
(5.59966e-07 -3.63437e-06 0)
(5.58195e-07 -3.69543e-06 0)
(5.6178e-07 -3.75472e-06 0)
(5.69348e-07 -3.81346e-06 0)
(5.79227e-07 -3.8725e-06 0)
(2.59231e-07 -3.11491e-06 0)
(2.28053e-07 -3.3165e-06 0)
(2.08078e-07 -3.4432e-06 0)
(1.95887e-07 -3.54493e-06 0)
(1.89057e-07 -3.62304e-06 0)
(1.85794e-07 -3.69238e-06 0)
(1.85099e-07 -3.75488e-06 0)
(1.86249e-07 -3.81523e-06 0)
(1.88776e-07 -3.87475e-06 0)
(1.92059e-07 -3.93457e-06 0)
(7.37179e-06 -9.2767e-08 0)
(7.43913e-06 -6.67845e-08 0)
(7.479e-06 -5.02666e-08 0)
(7.52165e-06 -4.05068e-08 0)
(7.5678e-06 -3.50248e-08 0)
(7.62453e-06 -3.24332e-08 0)
(7.69179e-06 -3.18137e-08 0)
(7.77045e-06 -3.24368e-08 0)
(7.86031e-06 -3.3984e-08 0)
(7.96016e-06 -3.58936e-08 0)
(7.31693e-06 -2.78307e-07 0)
(7.37307e-06 -2.01878e-07 0)
(7.40592e-06 -1.53334e-07 0)
(7.44385e-06 -1.24775e-07 0)
(7.48688e-06 -1.08886e-07 0)
(7.54138e-06 -1.01391e-07 0)
(7.60705e-06 -9.96381e-08 0)
(7.68442e-06 -1.01676e-07 0)
(7.77318e-06 -1.06405e-07 0)
(7.87186e-06 -1.12106e-07 0)
(7.20748e-06 -4.65404e-07 0)
(7.2422e-06 -3.42706e-07 0)
(7.2615e-06 -2.64847e-07 0)
(7.29044e-06 -2.19057e-07 0)
(7.32753e-06 -1.93674e-07 0)
(7.37786e-06 -1.81954e-07 0)
(7.44043e-06 -1.79453e-07 0)
(7.51533e-06 -1.83014e-07 0)
(7.60197e-06 -1.90899e-07 0)
(7.69835e-06 -2.00442e-07 0)
(7.04536e-06 -6.54867e-07 0)
(7.0496e-06 -4.92502e-07 0)
(7.04958e-06 -3.89543e-07 0)
(7.06574e-06 -3.29252e-07 0)
(7.09437e-06 -2.95978e-07 0)
(7.13874e-06 -2.80903e-07 0)
(7.19693e-06 -2.78092e-07 0)
(7.26829e-06 -2.83413e-07 0)
(7.35193e-06 -2.94437e-07 0)
(7.44511e-06 -3.07838e-07 0)
(6.8331e-06 -8.47195e-07 0)
(6.7997e-06 -6.53966e-07 0)
(6.77579e-06 -5.31436e-07 0)
(6.77611e-06 -4.60151e-07 0)
(6.79426e-06 -4.21139e-07 0)
(6.83121e-06 -4.03999e-07 0)
(6.88395e-06 -4.01546e-07 0)
(6.9509e-06 -4.08943e-07 0)
(7.0308e-06 -4.23117e-07 0)
(7.12009e-06 -4.4037e-07 0)
(6.57393e-06 -1.0425e-06 0)
(6.49792e-06 -8.289e-07 0)
(6.44705e-06 -6.93371e-07 0)
(6.42946e-06 -6.15236e-07 0)
(6.43571e-06 -5.73014e-07 0)
(6.46418e-06 -5.55317e-07 0)
(6.51072e-06 -5.54016e-07 0)
(6.5726e-06 -5.63854e-07 0)
(6.64817e-06 -5.8122e-07 0)
(6.73307e-06 -6.02308e-07 0)
(6.27174e-06 -1.24038e-06 0)
(6.1507e-06 -1.01801e-06 0)
(6.07134e-06 -8.76777e-07 0)
(6.03482e-06 -7.96362e-07 0)
(6.02844e-06 -7.53704e-07 0)
(6.04791e-06 -7.37131e-07 0)
(6.08775e-06 -7.379e-07 0)
(6.14419e-06 -7.50573e-07 0)
(6.21501e-06 -7.71199e-07 0)
(6.29526e-06 -7.9606e-07 0)
(5.93059e-06 -1.43991e-06 0)
(5.76494e-06 -1.22079e-06 0)
(5.65739e-06 -1.08145e-06 0)
(5.60202e-06 -1.00355e-06 0)
(5.58305e-06 -9.63365e-07 0)
(5.59339e-06 -9.49674e-07 0)
(5.62634e-06 -9.53475e-07 0)
(5.67712e-06 -9.69468e-07 0)
(5.74286e-06 -9.9345e-07 0)
(5.81831e-06 -1.02211e-06 0)
(5.55495e-06 -1.6397e-06 0)
(5.34784e-06 -1.43558e-06 0)
(5.21411e-06 -1.30561e-06 0)
(5.14111e-06 -1.23494e-06 0)
(5.11023e-06 -1.20009e-06 0)
(5.11177e-06 -1.19097e-06 0)
(5.13787e-06 -1.19878e-06 0)
(5.18297e-06 -1.21852e-06 0)
(5.24342e-06 -1.24619e-06 0)
(5.31419e-06 -1.27847e-06 0)
(5.1493e-06 -1.83788e-06 0)
(4.90652e-06 -1.65961e-06 0)
(4.75029e-06 -1.54589e-06 0)
(4.66195e-06 -1.48682e-06 0)
(4.62049e-06 -1.45999e-06 0)
(4.61402e-06 -1.45703e-06 0)
(4.63372e-06 -1.46971e-06 0)
(4.67317e-06 -1.49376e-06 0)
(4.7283e-06 -1.52518e-06 0)
(4.79422e-06 -1.56244e-06 0)
(8.07036e-06 -3.78014e-08 0)
(8.19055e-06 -3.81429e-08 0)
(8.31845e-06 -3.85734e-08 0)
(8.45363e-06 -3.88632e-08 0)
(8.59521e-06 -3.89792e-08 0)
(8.74266e-06 -3.89038e-08 0)
(8.8953e-06 -3.85667e-08 0)
(9.05254e-06 -3.79831e-08 0)
(9.21389e-06 -3.71548e-08 0)
(9.37883e-06 -3.60549e-08 0)
(9.54684e-06 -3.46466e-08 0)
(9.71741e-06 -3.29062e-08 0)
(9.89007e-06 -3.08034e-08 0)
(1.00643e-05 -2.83102e-08 0)
(1.02395e-05 -2.53886e-08 0)
(1.04152e-05 -2.19865e-08 0)
(1.05909e-05 -1.80308e-08 0)
(1.07654e-05 -1.34432e-08 0)
(1.0939e-05 -8.11155e-09 0)
(1.11087e-05 -1.99076e-09 0)
(7.98599e-06 -1.17384e-07 0)
(8.11325e-06 -1.17851e-07 0)
(8.24748e-06 -1.18661e-07 0)
(8.38816e-06 -1.1914e-07 0)
(8.53466e-06 -1.19106e-07 0)
(8.68642e-06 -1.1856e-07 0)
(8.84295e-06 -1.17354e-07 0)
(9.00371e-06 -1.15478e-07 0)
(9.16826e-06 -1.12849e-07 0)
(9.3361e-06 -1.09393e-07 0)
(9.50677e-06 -1.0504e-07 0)
(9.67982e-06 -9.97388e-08 0)
(9.8548e-06 -9.33934e-08 0)
(1.00312e-05 -8.58923e-08 0)
(1.02086e-05 -7.70992e-08 0)
(1.03862e-05 -6.68603e-08 0)
(1.05638e-05 -5.49685e-08 0)
(1.07402e-05 -4.12027e-08 0)
(1.09156e-05 -2.52172e-08 0)
(1.10871e-05 -6.87431e-09 0)
(7.82016e-06 -2.07904e-07 0)
(7.96133e-06 -2.06928e-07 0)
(8.10795e-06 -2.0668e-07 0)
(8.25933e-06 -2.06261e-07 0)
(8.4154e-06 -2.05203e-07 0)
(8.57566e-06 -2.03505e-07 0)
(8.73985e-06 -2.0084e-07 0)
(8.90747e-06 -1.97166e-07 0)
(9.07826e-06 -1.92325e-07 0)
(9.25178e-06 -1.86208e-07 0)
(9.42771e-06 -1.78696e-07 0)
(9.60563e-06 -1.69674e-07 0)
(9.78515e-06 -1.58958e-07 0)
(9.96579e-06 -1.46351e-07 0)
(1.01472e-05 -1.31626e-07 0)
(1.03287e-05 -1.14525e-07 0)
(1.051e-05 -9.46959e-08 0)
(1.069e-05 -7.17706e-08 0)
(1.0869e-05 -4.51597e-08 0)
(1.10441e-05 -1.46317e-08 0)
(7.57786e-06 -3.15578e-07 0)
(7.73893e-06 -3.10711e-07 0)
(7.90349e-06 -3.07165e-07 0)
(8.07046e-06 -3.04123e-07 0)
(8.24051e-06 -3.00585e-07 0)
(8.41313e-06 -2.96573e-07 0)
(8.58847e-06 -2.91503e-07 0)
(8.76614e-06 -2.85293e-07 0)
(8.9461e-06 -2.77668e-07 0)
(9.12803e-06 -2.68445e-07 0)
(9.3117e-06 -2.57412e-07 0)
(9.49677e-06 -2.44372e-07 0)
(9.68295e-06 -2.29064e-07 0)
(9.86986e-06 -2.11209e-07 0)
(1.00572e-05 -1.90486e-07 0)
(1.02443e-05 -1.66507e-07 0)
(1.04311e-05 -1.38771e-07 0)
(1.06165e-05 -1.06747e-07 0)
(1.08006e-05 -6.95876e-08 0)
(1.0981e-05 -2.69818e-08 0)
(7.26642e-06 -4.45942e-07 0)
(7.4525e-06 -4.34014e-07 0)
(7.6398e-06 -4.24279e-07 0)
(7.8265e-06 -4.16388e-07 0)
(8.01439e-06 -4.08492e-07 0)
(8.20285e-06 -4.00658e-07 0)
(8.39252e-06 -3.91965e-07 0)
(8.58315e-06 -3.82241e-07 0)
(8.77492e-06 -3.71033e-07 0)
(8.96763e-06 -3.58051e-07 0)
(9.16125e-06 -3.4299e-07 0)
(9.35557e-06 -3.25557e-07 0)
(9.5504e-06 -3.05387e-07 0)
(9.74544e-06 -2.82097e-07 0)
(9.94046e-06 -2.55252e-07 0)
(1.0135e-05 -2.24331e-07 0)
(1.03288e-05 -1.8868e-07 0)
(1.0521e-05 -1.47606e-07 0)
(1.07119e-05 -1.00004e-07 0)
(1.0899e-05 -4.54659e-08 0)
(6.89472e-06 -6.02962e-07 0)
(7.10954e-06 -5.80301e-07 0)
(7.32344e-06 -5.60959e-07 0)
(7.5334e-06 -5.45515e-07 0)
(7.74245e-06 -5.31032e-07 0)
(7.9498e-06 -5.17546e-07 0)
(8.15655e-06 -5.03735e-07 0)
(8.36269e-06 -4.8927e-07 0)
(8.56863e-06 -4.73519e-07 0)
(8.77435e-06 -4.56038e-07 0)
(8.97997e-06 -4.36388e-07 0)
(9.18543e-06 -4.14144e-07 0)
(9.39065e-06 -3.88813e-07 0)
(9.59544e-06 -3.59895e-07 0)
(9.79969e-06 -3.26817e-07 0)
(1.0003e-05 -2.88931e-07 0)
(1.02053e-05 -2.45408e-07 0)
(1.04057e-05 -1.95401e-07 0)
(1.06048e-05 -1.37544e-07 0)
(1.08e-05 -7.12824e-08 0)
(6.47316e-06 -7.89085e-07 0)
(6.7192e-06 -7.51967e-07 0)
(6.96242e-06 -7.19618e-07 0)
(7.19823e-06 -6.93728e-07 0)
(7.43089e-06 -6.70306e-07 0)
(7.65951e-06 -6.49151e-07 0)
(7.88562e-06 -6.28636e-07 0)
(8.10939e-06 -6.08111e-07 0)
(8.33147e-06 -5.86753e-07 0)
(8.55206e-06 -5.63916e-07 0)
(8.77143e-06 -5.38994e-07 0)
(8.98965e-06 -5.11396e-07 0)
(9.20678e-06 -4.80497e-07 0)
(9.42276e-06 -4.45667e-07 0)
(9.6376e-06 -4.06189e-07 0)
(9.85101e-06 -3.61274e-07 0)
(1.00631e-05 -3.0991e-07 0)
(1.02729e-05 -2.51081e-07 0)
(1.04812e-05 -1.83181e-07 0)
(1.06857e-05 -1.05489e-07 0)
(6.01225e-06 -1.00484e-06 0)
(6.29043e-06 -9.49158e-07 0)
(6.5644e-06 -9.0039e-07 0)
(6.82788e-06 -8.6083e-07 0)
(7.08599e-06 -8.26e-07 0)
(7.33778e-06 -7.95014e-07 0)
(7.58513e-06 -7.66088e-07 0)
(7.82836e-06 -7.38129e-07 0)
(8.06828e-06 -7.10085e-07 0)
(8.30532e-06 -6.81059e-07 0)
(8.53989e-06 -6.50236e-07 0)
(8.77222e-06 -6.16837e-07 0)
(9.00254e-06 -5.80076e-07 0)
(9.23094e-06 -5.3917e-07 0)
(9.45751e-06 -4.93244e-07 0)
(9.68211e-06 -4.41348e-07 0)
(9.90487e-06 -3.8229e-07 0)
(1.01252e-05 -3.14875e-07 0)
(1.03437e-05 -2.37253e-07 0)
(1.05584e-05 -1.4854e-07 0)
(5.52342e-06 -1.24979e-06 0)
(5.8337e-06 -1.17217e-06 0)
(6.13836e-06 -1.10485e-06 0)
(6.43038e-06 -1.04888e-06 0)
(6.71469e-06 -1.00046e-06 0)
(6.99081e-06 -9.57665e-07 0)
(7.26047e-06 -9.18614e-07 0)
(7.52432e-06 -8.81745e-07 0)
(7.78327e-06 -8.45763e-07 0)
(8.03793e-06 -8.09497e-07 0)
(8.28884e-06 -7.7191e-07 0)
(8.53642e-06 -7.32028e-07 0)
(8.781e-06 -6.88887e-07 0)
(9.02281e-06 -6.41537e-07 0)
(9.26208e-06 -5.88928e-07 0)
(9.49878e-06 -5.29935e-07 0)
(9.73313e-06 -4.63197e-07 0)
(9.96469e-06 -3.87336e-07 0)
(1.01943e-05 -3.00298e-07 0)
(1.04202e-05 -2.01041e-07 0)
(5.01583e-06 -1.51947e-06 0)
(5.35803e-06 -1.41492e-06 0)
(5.69191e-06 -1.32676e-06 0)
(6.01312e-06 -1.25177e-06 0)
(6.32417e-06 -1.18756e-06 0)
(6.62562e-06 -1.13121e-06 0)
(6.91862e-06 -1.08061e-06 0)
(7.20411e-06 -1.03378e-06 0)
(7.48306e-06 -9.8909e-07 0)
(7.75624e-06 -9.45055e-07 0)
(8.02432e-06 -9.00366e-07 0)
(8.28788e-06 -8.53818e-07 0)
(8.54741e-06 -8.04242e-07 0)
(8.80327e-06 -7.50498e-07 0)
(9.0558e-06 -6.91356e-07 0)
(9.3051e-06 -6.25521e-07 0)
(9.55155e-06 -5.51466e-07 0)
(9.79487e-06 -4.67621e-07 0)
(1.0036e-05 -3.71746e-07 0)
(1.02735e-05 -2.62597e-07 0)
(4.64152e-06 -1.77609e-06 0)
(5.0039e-06 -1.6503e-06 0)
(5.35455e-06 -1.54689e-06 0)
(5.69321e-06 -1.45701e-06 0)
(6.02079e-06 -1.3791e-06 0)
(6.3381e-06 -1.31019e-06 0)
(6.64614e-06 -1.24811e-06 0)
(6.9458e-06 -1.19083e-06 0)
(7.23801e-06 -1.13658e-06 0)
(7.52352e-06 -1.08376e-06 0)
(7.80305e-06 -1.03091e-06 0)
(8.07722e-06 -9.76715e-07 0)
(8.34659e-06 -9.19864e-07 0)
(8.61158e-06 -8.59099e-07 0)
(8.87262e-06 -7.9308e-07 0)
(9.12995e-06 -7.20403e-07 0)
(9.384e-06 -6.39493e-07 0)
(9.63476e-06 -5.48671e-07 0)
(9.88313e-06 -4.45667e-07 0)
(1.01282e-05 -3.2917e-07 0)
(4.42635e-06 -1.98328e-06 0)
(4.79119e-06 -1.85281e-06 0)
(5.14465e-06 -1.74105e-06 0)
(5.48767e-06 -1.64222e-06 0)
(5.82031e-06 -1.55484e-06 0)
(6.14309e-06 -1.47648e-06 0)
(6.45675e-06 -1.40512e-06 0)
(6.76197e-06 -1.33888e-06 0)
(7.0595e-06 -1.27604e-06 0)
(7.35002e-06 -1.21502e-06 0)
(7.63417e-06 -1.15439e-06 0)
(7.91257e-06 -1.09279e-06 0)
(8.18576e-06 -1.0289e-06 0)
(8.45419e-06 -9.61426e-07 0)
(8.71831e-06 -8.89029e-07 0)
(8.97845e-06 -8.10287e-07 0)
(9.23509e-06 -7.23675e-07 0)
(9.48839e-06 -6.27539e-07 0)
(9.73926e-06 -5.19705e-07 0)
(9.9872e-06 -3.98944e-07 0)
(4.24118e-06 -2.18284e-06 0)
(4.60262e-06 -2.04915e-06 0)
(4.95551e-06 -1.93179e-06 0)
(5.29922e-06 -1.82604e-06 0)
(5.63376e-06 -1.73082e-06 0)
(5.9592e-06 -1.6442e-06 0)
(6.276e-06 -1.56442e-06 0)
(6.58463e-06 -1.48981e-06 0)
(6.88565e-06 -1.41877e-06 0)
(7.17961e-06 -1.34982e-06 0)
(7.46711e-06 -1.28157e-06 0)
(7.74866e-06 -1.21269e-06 0)
(8.0248e-06 -1.14186e-06 0)
(8.29596e-06 -1.06781e-06 0)
(8.56261e-06 -9.89198e-07 0)
(8.82515e-06 -9.04636e-07 0)
(9.08408e-06 -8.12659e-07 0)
(9.33969e-06 -7.1169e-07 0)
(9.59289e-06 -5.99685e-07 0)
(9.84353e-06 -4.75534e-07 0)
(4.07737e-06 -2.37532e-06 0)
(4.43373e-06 -2.23998e-06 0)
(4.78359e-06 -2.11834e-06 0)
(5.1256e-06 -2.00686e-06 0)
(5.45969e-06 -1.90488e-06 0)
(5.7856e-06 -1.81091e-06 0)
(6.10359e-06 -1.72348e-06 0)
(6.41387e-06 -1.64113e-06 0)
(6.71686e-06 -1.56242e-06 0)
(7.01298e-06 -1.48598e-06 0)
(7.30269e-06 -1.41049e-06 0)
(7.58648e-06 -1.33467e-06 0)
(7.86479e-06 -1.25722e-06 0)
(8.13806e-06 -1.17691e-06 0)
(8.40675e-06 -1.09245e-06 0)
(8.6713e-06 -1.0025e-06 0)
(8.93222e-06 -9.05676e-07 0)
(9.18991e-06 -8.0049e-07 0)
(9.44524e-06 -6.85071e-07 0)
(9.69841e-06 -5.58444e-07 0)
(3.93272e-06 -2.5597e-06 0)
(4.28245e-06 -2.42382e-06 0)
(4.6275e-06 -2.29934e-06 0)
(4.96595e-06 -2.18352e-06 0)
(5.29777e-06 -2.07606e-06 0)
(5.62241e-06 -1.97585e-06 0)
(5.93993e-06 -1.8817e-06 0)
(6.25036e-06 -1.79239e-06 0)
(6.55398e-06 -1.70665e-06 0)
(6.85107e-06 -1.62324e-06 0)
(7.14199e-06 -1.54096e-06 0)
(7.42712e-06 -1.45857e-06 0)
(7.70688e-06 -1.37486e-06 0)
(7.98167e-06 -1.28866e-06 0)
(8.25192e-06 -1.19872e-06 0)
(8.51808e-06 -1.10379e-06 0)
(8.78067e-06 -1.00257e-06 0)
(9.04019e-06 -8.93698e-07 0)
(9.29744e-06 -7.75509e-07 0)
(9.55291e-06 -6.47167e-07 0)
(3.80392e-06 -2.73611e-06 0)
(4.14622e-06 -2.60057e-06 0)
(4.48535e-06 -2.47428e-06 0)
(4.81896e-06 -2.35518e-06 0)
(5.14717e-06 -2.24328e-06 0)
(5.46915e-06 -2.13779e-06 0)
(5.78488e-06 -2.03781e-06 0)
(6.09422e-06 -1.94232e-06 0)
(6.39734e-06 -1.85024e-06 0)
(6.69437e-06 -1.76048e-06 0)
(6.98559e-06 -1.67194e-06 0)
(7.27129e-06 -1.58348e-06 0)
(7.55182e-06 -1.49397e-06 0)
(7.82756e-06 -1.40231e-06 0)
(8.0989e-06 -1.30734e-06 0)
(8.3663e-06 -1.2079e-06 0)
(8.63026e-06 -1.1028e-06 0)
(8.89133e-06 -9.90797e-07 0)
(9.15031e-06 -8.70457e-07 0)
(9.4078e-06 -7.41069e-07 0)
(3.68842e-06 -2.90474e-06 0)
(4.02283e-06 -2.77016e-06 0)
(4.35526e-06 -2.64289e-06 0)
(4.68321e-06 -2.52144e-06 0)
(5.00682e-06 -2.40607e-06 0)
(5.32512e-06 -2.29622e-06 0)
(5.63803e-06 -2.19126e-06 0)
(5.9453e-06 -2.09038e-06 0)
(6.24697e-06 -1.99268e-06 0)
(6.54308e-06 -1.89721e-06 0)
(6.83383e-06 -1.80299e-06 0)
(7.11941e-06 -1.70898e-06 0)
(7.40013e-06 -1.61416e-06 0)
(7.67631e-06 -1.51753e-06 0)
(7.94832e-06 -1.41798e-06 0)
(8.2166e-06 -1.3145e-06 0)
(8.48165e-06 -1.20599e-06 0)
(8.74402e-06 -1.09138e-06 0)
(9.00448e-06 -9.6942e-07 0)
(9.26371e-06 -8.39531e-07 0)
(3.58379e-06 -3.06594e-06 0)
(3.91019e-06 -2.93275e-06 0)
(4.23549e-06 -2.80513e-06 0)
(4.55724e-06 -2.68207e-06 0)
(4.87555e-06 -2.56401e-06 0)
(5.18943e-06 -2.45061e-06 0)
(5.49875e-06 -2.34147e-06 0)
(5.80318e-06 -2.23596e-06 0)
(6.10266e-06 -2.13333e-06 0)
(6.39715e-06 -2.03279e-06 0)
(6.68678e-06 -1.9335e-06 0)
(6.97168e-06 -1.83452e-06 0)
(7.25208e-06 -1.73491e-06 0)
(7.52827e-06 -1.63381e-06 0)
(7.80059e-06 -1.53018e-06 0)
(8.06945e-06 -1.42314e-06 0)
(8.33531e-06 -1.31171e-06 0)
(8.59876e-06 -1.19495e-06 0)
(8.86046e-06 -1.07185e-06 0)
(9.12117e-06 -9.41916e-07 0)
(3.48791e-06 -3.22021e-06 0)
(3.80631e-06 -3.08865e-06 0)
(4.12429e-06 -2.96114e-06 0)
(4.43953e-06 -2.83706e-06 0)
(4.75212e-06 -2.71697e-06 0)
(5.0611e-06 -2.60074e-06 0)
(5.3663e-06 -2.48813e-06 0)
(5.66732e-06 -2.37869e-06 0)
(5.96404e-06 -2.27182e-06 0)
(6.25638e-06 -2.16687e-06 0)
(6.54439e-06 -2.06311e-06 0)
(6.82815e-06 -1.95972e-06 0)
(7.10784e-06 -1.85588e-06 0)
(7.38369e-06 -1.75081e-06 0)
(7.65601e-06 -1.64359e-06 0)
(7.92518e-06 -1.53346e-06 0)
(8.19163e-06 -1.41955e-06 0)
(8.45592e-06 -1.30109e-06 0)
(8.71861e-06 -1.17723e-06 0)
(8.98062e-06 -1.04762e-06 0)
(3.39888e-06 -3.36804e-06 0)
(3.7094e-06 -3.23823e-06 0)
(4.02007e-06 -3.11115e-06 0)
(4.32866e-06 -2.9865e-06 0)
(4.63533e-06 -2.86494e-06 0)
(4.93913e-06 -2.74648e-06 0)
(5.23985e-06 -2.63105e-06 0)
(5.53708e-06 -2.51832e-06 0)
(5.83065e-06 -2.40785e-06 0)
(6.12045e-06 -2.2991e-06 0)
(6.40646e-06 -2.19147e-06 0)
(6.68873e-06 -2.08425e-06 0)
(6.96738e-06 -1.97671e-06 0)
(7.24261e-06 -1.86819e-06 0)
(7.51468e-06 -1.75787e-06 0)
(7.78393e-06 -1.6451e-06 0)
(8.05074e-06 -1.52914e-06 0)
(8.31565e-06 -1.40935e-06 0)
(8.57916e-06 -1.28506e-06 0)
(8.84221e-06 -1.15607e-06 0)
(3.315e-06 -3.50996e-06 0)
(3.61787e-06 -3.38192e-06 0)
(3.92132e-06 -3.25547e-06 0)
(4.22331e-06 -3.1306e-06 0)
(4.524e-06 -3.00802e-06 0)
(4.82248e-06 -2.88785e-06 0)
(5.11852e-06 -2.77016e-06 0)
(5.41173e-06 -2.65474e-06 0)
(5.7019e-06 -2.54126e-06 0)
(5.98889e-06 -2.42931e-06 0)
(6.27265e-06 -2.31838e-06 0)
(6.55317e-06 -2.20788e-06 0)
(6.83055e-06 -2.09717e-06 0)
(7.10494e-06 -1.98569e-06 0)
(7.37655e-06 -1.87273e-06 0)
(7.64569e-06 -1.75774e-06 0)
(7.91268e-06 -1.64012e-06 0)
(8.17801e-06 -1.51932e-06 0)
(8.44219e-06 -1.39489e-06 0)
(8.70601e-06 -1.2667e-06 0)
(3.23474e-06 -3.64644e-06 0)
(3.53025e-06 -3.52013e-06 0)
(3.82668e-06 -3.39446e-06 0)
(4.12221e-06 -3.26962e-06 0)
(4.41696e-06 -3.14638e-06 0)
(4.7101e-06 -3.02495e-06 0)
(5.0014e-06 -2.90549e-06 0)
(5.29049e-06 -2.7879e-06 0)
(5.57712e-06 -2.67196e-06 0)
(5.86116e-06 -2.55735e-06 0)
(6.14251e-06 -2.44368e-06 0)
(6.42113e-06 -2.33041e-06 0)
(6.6971e-06 -2.21704e-06 0)
(6.97051e-06 -2.10308e-06 0)
(7.24153e-06 -1.98791e-06 0)
(7.51042e-06 -1.8711e-06 0)
(7.77744e-06 -1.75215e-06 0)
(8.04307e-06 -1.63064e-06 0)
(8.30774e-06 -1.50628e-06 0)
(8.57214e-06 -1.379e-06 0)
(3.15675e-06 -3.77796e-06 0)
(3.44522e-06 -3.65329e-06 0)
(3.73488e-06 -3.52846e-06 0)
(4.02413e-06 -3.40386e-06 0)
(4.31308e-06 -3.28025e-06 0)
(4.60096e-06 -3.15792e-06 0)
(4.88757e-06 -3.03713e-06 0)
(5.17255e-06 -2.91786e-06 0)
(5.45565e-06 -2.79996e-06 0)
(5.73671e-06 -2.68321e-06 0)
(6.0156e-06 -2.56729e-06 0)
(6.29227e-06 -2.45176e-06 0)
(6.56674e-06 -2.3362e-06 0)
(6.83907e-06 -2.2202e-06 0)
(7.10939e-06 -2.10324e-06 0)
(7.37791e-06 -1.98496e-06 0)
(7.64485e-06 -1.86497e-06 0)
(7.91066e-06 -1.74299e-06 0)
(8.17562e-06 -1.61885e-06 0)
(8.44049e-06 -1.49253e-06 0)
(3.07977e-06 -3.90491e-06 0)
(3.3615e-06 -3.78181e-06 0)
(3.64467e-06 -3.65785e-06 0)
(3.92789e-06 -3.53361e-06 0)
(4.21125e-06 -3.40987e-06 0)
(4.49407e-06 -3.28697e-06 0)
(4.77616e-06 -3.16525e-06 0)
(5.05713e-06 -3.04472e-06 0)
(5.33679e-06 -2.92532e-06 0)
(5.61491e-06 -2.80689e-06 0)
(5.89136e-06 -2.6892e-06 0)
(6.16607e-06 -2.57186e-06 0)
(6.43903e-06 -2.45454e-06 0)
(6.71025e-06 -2.33691e-06 0)
(6.97981e-06 -2.21851e-06 0)
(7.2479e-06 -2.09908e-06 0)
(7.51469e-06 -1.97833e-06 0)
(7.78056e-06 -1.85606e-06 0)
(8.0457e-06 -1.73223e-06 0)
(8.31086e-06 -1.60691e-06 0)
(3.00247e-06 -4.02771e-06 0)
(3.27779e-06 -3.90602e-06 0)
(3.5548e-06 -3.78297e-06 0)
(3.83229e-06 -3.65924e-06 0)
(4.11037e-06 -3.53558e-06 0)
(4.38841e-06 -3.41241e-06 0)
(4.66622e-06 -3.29007e-06 0)
(4.9434e-06 -3.16867e-06 0)
(5.21978e-06 -3.04817e-06 0)
(5.49512e-06 -2.92849e-06 0)
(5.76926e-06 -2.80945e-06 0)
(6.04211e-06 -2.69073e-06 0)
(6.3136e-06 -2.57205e-06 0)
(6.58374e-06 -2.45315e-06 0)
(6.85256e-06 -2.33364e-06 0)
(7.1202e-06 -2.21333e-06 0)
(7.38679e-06 -2.09204e-06 0)
(7.65261e-06 -1.96964e-06 0)
(7.9179e-06 -1.84617e-06 0)
(8.1832e-06 -1.7218e-06 0)
(2.92362e-06 -4.14664e-06 0)
(3.19286e-06 -4.02643e-06 0)
(3.46399e-06 -3.90418e-06 0)
(3.73619e-06 -3.78103e-06 0)
(4.00938e-06 -3.65767e-06 0)
(4.283e-06 -3.53448e-06 0)
(4.55687e-06 -3.41184e-06 0)
(4.8306e-06 -3.28991e-06 0)
(5.10396e-06 -3.1687e-06 0)
(5.37672e-06 -3.04815e-06 0)
(5.64873e-06 -2.92814e-06 0)
(5.91984e-06 -2.80842e-06 0)
(6.18998e-06 -2.68874e-06 0)
(6.4591e-06 -2.56889e-06 0)
(6.7272e-06 -2.44855e-06 0)
(6.9944e-06 -2.32761e-06 0)
(7.26077e-06 -2.20595e-06 0)
(7.52651e-06 -2.08349e-06 0)
(7.79186e-06 -1.96043e-06 0)
(8.05724e-06 -1.83692e-06 0)
(2.84195e-06 -4.26222e-06 0)
(3.10526e-06 -4.14304e-06 0)
(3.37083e-06 -4.02186e-06 0)
(3.63838e-06 -3.89954e-06 0)
(3.90711e-06 -3.77662e-06 0)
(4.17684e-06 -3.65363e-06 0)
(4.44718e-06 -3.53096e-06 0)
(4.71784e-06 -3.40878e-06 0)
(4.98855e-06 -3.28716e-06 0)
(5.25908e-06 -3.16608e-06 0)
(5.52922e-06 -3.04546e-06 0)
(5.79881e-06 -2.92505e-06 0)
(6.06775e-06 -2.80466e-06 0)
(6.33597e-06 -2.68414e-06 0)
(6.60345e-06 -2.56323e-06 0)
(6.87025e-06 -2.44184e-06 0)
(7.13639e-06 -2.31992e-06 0)
(7.40208e-06 -2.19748e-06 0)
(7.66738e-06 -2.07479e-06 0)
(7.93278e-06 -1.95205e-06 0)
(2.75552e-06 -4.37431e-06 0)
(3.01379e-06 -4.25633e-06 0)
(3.27479e-06 -4.13645e-06 0)
(3.53786e-06 -4.015e-06 0)
(3.80275e-06 -3.89271e-06 0)
(4.06905e-06 -3.77014e-06 0)
(4.33641e-06 -3.64768e-06 0)
(4.60449e-06 -3.52555e-06 0)
(4.87301e-06 -3.40382e-06 0)
(5.14168e-06 -3.28251e-06 0)
(5.41029e-06 -3.16154e-06 0)
(5.67862e-06 -3.04073e-06 0)
(5.94657e-06 -2.91991e-06 0)
(6.21405e-06 -2.79895e-06 0)
(6.481e-06 -2.67766e-06 0)
(6.74745e-06 -2.55599e-06 0)
(7.01338e-06 -2.4339e-06 0)
(7.27903e-06 -2.31149e-06 0)
(7.54432e-06 -2.18911e-06 0)
(7.80964e-06 -2.06703e-06 0)
(2.66318e-06 -4.48412e-06 0)
(2.91682e-06 -4.36757e-06 0)
(3.17368e-06 -4.24872e-06 0)
(3.43312e-06 -4.12821e-06 0)
(3.69488e-06 -4.00671e-06 0)
(3.95849e-06 -3.88472e-06 0)
(4.22358e-06 -3.76268e-06 0)
(4.48976e-06 -3.6408e-06 0)
(4.75667e-06 -3.51917e-06 0)
(5.02399e-06 -3.39783e-06 0)
(5.29146e-06 -3.27674e-06 0)
(5.55889e-06 -3.15572e-06 0)
(5.8261e-06 -3.03467e-06 0)
(6.09299e-06 -2.91348e-06 0)
(6.35951e-06 -2.79193e-06 0)
(6.62568e-06 -2.67002e-06 0)
(6.8915e-06 -2.54785e-06 0)
(7.15704e-06 -2.42546e-06 0)
(7.42236e-06 -2.30327e-06 0)
(7.68764e-06 -2.18167e-06 0)
(2.56376e-06 -4.59078e-06 0)
(2.81336e-06 -4.47581e-06 0)
(3.06678e-06 -4.35843e-06 0)
(3.32343e-06 -4.23916e-06 0)
(3.5829e-06 -4.11869e-06 0)
(3.84469e-06 -3.99755e-06 0)
(4.10832e-06 -3.87616e-06 0)
(4.37333e-06 -3.75476e-06 0)
(4.63929e-06 -3.63342e-06 0)
(4.90584e-06 -3.51222e-06 0)
(5.17267e-06 -3.39119e-06 0)
(5.43952e-06 -3.27015e-06 0)
(5.70625e-06 -3.14897e-06 0)
(5.97272e-06 -3.02764e-06 0)
(6.23889e-06 -2.90599e-06 0)
(6.50479e-06 -2.78397e-06 0)
(6.77051e-06 -2.66172e-06 0)
(7.03601e-06 -2.5393e-06 0)
(7.30144e-06 -2.41717e-06 0)
(7.56677e-06 -2.29585e-06 0)
(1.9124e-07 -3.99591e-06 0)
(5.76439e-07 -3.93678e-06 0)
(9.69804e-07 -3.82087e-06 0)
(1.37597e-06 -3.65285e-06 0)
(1.79868e-06 -3.43916e-06 0)
(2.24029e-06 -3.18778e-06 0)
(2.70171e-06 -2.90793e-06 0)
(3.18213e-06 -2.6092e-06 0)
(3.67972e-06 -2.30137e-06 0)
(4.19073e-06 -1.99227e-06 0)
(1.8573e-07 -4.05959e-06 0)
(5.59506e-07 -4.00555e-06 0)
(9.40093e-07 -3.89956e-06 0)
(1.33142e-06 -3.74556e-06 0)
(1.73666e-06 -3.54905e-06 0)
(2.15784e-06 -3.3168e-06 0)
(2.59583e-06 -3.05664e-06 0)
(3.04976e-06 -2.7769e-06 0)
(3.51742e-06 -2.48642e-06 0)
(3.99589e-06 -2.19161e-06 0)
(1.80884e-07 -4.12478e-06 0)
(5.44581e-07 -4.07536e-06 0)
(9.13854e-07 -3.97836e-06 0)
(1.29186e-06 -3.83717e-06 0)
(1.6813e-06 -3.65658e-06 0)
(2.08383e-06 -3.44244e-06 0)
(2.50036e-06 -3.20146e-06 0)
(2.93061e-06 -2.94064e-06 0)
(3.37298e-06 -2.66763e-06 0)
(3.82557e-06 -2.38652e-06 0)
(1.76587e-07 -4.19163e-06 0)
(5.31349e-07 -4.14614e-06 0)
(8.90803e-07 -4.0568e-06 0)
(1.25747e-06 -3.92658e-06 0)
(1.63363e-06 -3.75968e-06 0)
(2.02064e-06 -3.56123e-06 0)
(2.41916e-06 -3.33716e-06 0)
(2.82895e-06 -3.09361e-06 0)
(3.24864e-06 -2.83772e-06 0)
(3.67661e-06 -2.57259e-06 0)
(1.72641e-07 -4.26011e-06 0)
(5.19186e-07 -4.21813e-06 0)
(8.69658e-07 -4.13566e-06 0)
(1.22608e-06 -4.0153e-06 0)
(1.59037e-06 -3.8608e-06 0)
(1.96365e-06 -3.67672e-06 0)
(2.34652e-06 -3.46829e-06 0)
(2.73876e-06 -3.24076e-06 0)
(3.13943e-06 -3.00058e-06 0)
(3.54629e-06 -2.75058e-06 0)
(1.68954e-07 -4.33011e-06 0)
(5.07936e-07 -4.29118e-06 0)
(8.50201e-07 -4.21467e-06 0)
(1.19745e-06 -4.10293e-06 0)
(1.55126e-06 -3.95931e-06 0)
(1.91254e-06 -3.78792e-06 0)
(2.28175e-06 -3.59351e-06 0)
(2.65857e-06 -3.38071e-06 0)
(3.04258e-06 -3.15536e-06 0)
(3.43102e-06 -2.92031e-06 0)
(1.6543e-07 -4.40155e-06 0)
(4.97227e-07 -4.36535e-06 0)
(8.31784e-07 -4.29415e-06 0)
(1.17056e-06 -4.19012e-06 0)
(1.51484e-06 -4.05626e-06 0)
(1.86541e-06 -3.89631e-06 0)
(2.22263e-06 -3.71457e-06 0)
(2.58604e-06 -3.51518e-06 0)
(2.95563e-06 -3.30336e-06 0)
(3.3282e-06 -3.08222e-06 0)
(1.62058e-07 -4.47428e-06 0)
(4.86932e-07 -4.44048e-06 0)
(8.14183e-07 -4.37398e-06 0)
(1.14506e-06 -4.27678e-06 0)
(1.48061e-06 -4.15159e-06 0)
(1.82145e-06 -4.00185e-06 0)
(2.16797e-06 -3.83153e-06 0)
(2.51953e-06 -3.64438e-06 0)
(2.87646e-06 -3.44502e-06 0)
(3.23533e-06 -3.23682e-06 0)
(1.58748e-07 -4.54816e-06 0)
(4.7685e-07 -4.51652e-06 0)
(7.97049e-07 -4.45421e-06 0)
(1.12039e-06 -4.36313e-06 0)
(1.44778e-06 -4.24574e-06 0)
(1.77973e-06 -4.10519e-06 0)
(2.11656e-06 -3.94514e-06 0)
(2.45759e-06 -3.76909e-06 0)
(2.80331e-06 -3.58109e-06 0)
(3.15029e-06 -3.38472e-06 0)
(1.55432e-07 -4.62302e-06 0)
(4.66858e-07 -4.5933e-06 0)
(7.80154e-07 -4.53475e-06 0)
(1.09622e-06 -4.44914e-06 0)
(1.41586e-06 -4.33875e-06 0)
(1.73952e-06 -4.20647e-06 0)
(2.06746e-06 -4.05569e-06 0)
(2.39899e-06 -3.88971e-06 0)
(2.73467e-06 -3.71209e-06 0)
(3.07122e-06 -3.52652e-06 0)
(1.52084e-07 -4.69868e-06 0)
(4.56837e-07 -4.67071e-06 0)
(7.63254e-07 -4.61555e-06 0)
(1.0722e-06 -4.53486e-06 0)
(1.38436e-06 -4.43079e-06 0)
(1.70015e-06 -4.30598e-06 0)
(2.01982e-06 -4.16358e-06 0)
(2.34265e-06 -4.00672e-06 0)
(2.66923e-06 -3.83856e-06 0)
(2.9965e-06 -3.66278e-06 0)
(1.48697e-07 -4.77494e-06 0)
(4.46677e-07 -4.74857e-06 0)
(7.46148e-07 -4.69647e-06 0)
(1.04801e-06 -4.62023e-06 0)
(1.35284e-06 -4.52187e-06 0)
(1.66105e-06 -4.40384e-06 0)
(1.97288e-06 -4.26903e-06 0)
(2.28761e-06 -4.12045e-06 0)
(2.60583e-06 -3.96091e-06 0)
(2.92475e-06 -3.79403e-06 0)
(1.45227e-07 -4.85162e-06 0)
(4.36226e-07 -4.82669e-06 0)
(7.28609e-07 -4.77739e-06 0)
(1.02332e-06 -4.7052e-06 0)
(1.32087e-06 -4.61203e-06 0)
(1.62164e-06 -4.50016e-06 0)
(1.9259e-06 -4.37227e-06 0)
(2.23298e-06 -4.23121e-06 0)
(2.5434e-06 -4.07953e-06 0)
(2.85471e-06 -3.92072e-06 0)
(1.41609e-07 -4.92846e-06 0)
(4.25333e-07 -4.90482e-06 0)
(7.10409e-07 -4.85809e-06 0)
(9.97785e-07 -4.78961e-06 0)
(1.28798e-06 -4.70119e-06 0)
(1.58135e-06 -4.59496e-06 0)
(1.87818e-06 -4.4734e-06 0)
(2.1779e-06 -4.33919e-06 0)
(2.48093e-06 -4.19471e-06 0)
(2.78517e-06 -4.04324e-06 0)
(1.37785e-07 -5.00523e-06 0)
(4.13855e-07 -4.98278e-06 0)
(6.91308e-07 -4.93842e-06 0)
(9.71073e-07 -4.87337e-06 0)
(1.25371e-06 -4.78933e-06 0)
(1.53958e-06 -4.68829e-06 0)
(1.82899e-06 -4.57255e-06 0)
(2.12148e-06 -4.44465e-06 0)
(2.41738e-06 -4.30677e-06 0)
(2.71488e-06 -4.16198e-06 0)
(1.33713e-07 -5.0815e-06 0)
(4.01666e-07 -5.06016e-06 0)
(6.71065e-07 -5.01802e-06 0)
(9.42827e-07 -4.95617e-06 0)
(1.21759e-06 -4.87619e-06 0)
(1.49572e-06 -4.77996e-06 0)
(1.77759e-06 -4.66963e-06 0)
(2.06285e-06 -4.54756e-06 0)
(2.35169e-06 -4.41578e-06 0)
(2.64268e-06 -4.27712e-06 0)
(1.29346e-07 -5.15716e-06 0)
(3.88595e-07 -5.13686e-06 0)
(6.49369e-07 -5.09681e-06 0)
(9.12605e-07 -5.03797e-06 0)
(1.17903e-06 -4.96183e-06 0)
(1.44907e-06 -4.87012e-06 0)
(1.72312e-06 -4.76486e-06 0)
(2.00094e-06 -4.64824e-06 0)
(2.28272e-06 -4.52213e-06 0)
(2.5672e-06 -4.3892e-06 0)
(1.24621e-07 -5.23136e-06 0)
(3.74441e-07 -5.21207e-06 0)
(6.25885e-07 -5.174e-06 0)
(8.79938e-07 -5.11805e-06 0)
(1.13742e-06 -5.04556e-06 0)
(1.39885e-06 -4.95817e-06 0)
(1.66466e-06 -4.85772e-06 0)
(1.9347e-06 -4.74626e-06 0)
(2.20918e-06 -4.62554e-06 0)
(2.48711e-06 -4.49801e-06 0)
(1.19432e-07 -5.30449e-06 0)
(3.58895e-07 -5.28617e-06 0)
(6.00111e-07 -5.25002e-06 0)
(8.44147e-07 -5.19686e-06 0)
(1.0919e-06 -5.12792e-06 0)
(1.34401e-06 -5.0447e-06 0)
(1.60096e-06 -4.94889e-06 0)
(1.86275e-06 -4.84241e-06 0)
(2.12956e-06 -4.72686e-06 0)
(2.40072e-06 -4.6045e-06 0)
(1.13731e-07 -5.37423e-06 0)
(3.41834e-07 -5.35688e-06 0)
(5.71832e-07 -5.32266e-06 0)
(8.04887e-07 -5.27228e-06 0)
(1.04202e-06 -5.20688e-06 0)
(1.28398e-06 -5.12784e-06 0)
(1.53133e-06 -5.03668e-06 0)
(1.7843e-06 -4.93516e-06 0)
(2.04301e-06 -4.82482e-06 0)
(2.30709e-06 -4.70768e-06 0)
)


// ************************************************************************* //
