/*--------------------------------*- C++ -*----------------------------------*\
| =========                 |                                                 |
| \\      /  F ield         | foam-extend: Open Source CFD                    |
|  \\    /   O peration     | Version:     4.1                                |
|   \\  /    A nd           | Web:         http://www.foam-extend.org         |
|    \\/     M anipulation  |                                                 |
\*---------------------------------------------------------------------------*/
FoamFile
{
    version     2.0;
    format      ascii;
    class       vectorField;
    location    "9";
    object      solidsCellD_iteration6;
}
// * * * * * * * * * * * * * * * * * * * * * * * * * * * * * * * * * * * * * //


1000
(
(4.64819e-06 -1.9617e-06 0)
(4.38738e-06 -1.82654e-06 0)
(4.22097e-06 -1.74121e-06 0)
(4.12575e-06 -1.70179e-06 0)
(4.07955e-06 -1.68862e-06 0)
(4.0692e-06 -1.69575e-06 0)
(4.08517e-06 -1.71613e-06 0)
(4.12098e-06 -1.74643e-06 0)
(4.17152e-06 -1.78341e-06 0)
(4.23293e-06 -1.82549e-06 0)
(4.20317e-06 -2.14269e-06 0)
(3.92531e-06 -2.04895e-06 0)
(3.74809e-06 -1.98986e-06 0)
(3.64491e-06 -1.96833e-06 0)
(3.59249e-06 -1.96705e-06 0)
(3.57641e-06 -1.98263e-06 0)
(3.58685e-06 -2.00908e-06 0)
(3.61683e-06 -2.04386e-06 0)
(3.66112e-06 -2.08455e-06 0)
(3.71545e-06 -2.12873e-06 0)
(3.74062e-06 -2.31422e-06 0)
(3.45669e-06 -2.26679e-06 0)
(3.27572e-06 -2.23699e-06 0)
(3.16901e-06 -2.23515e-06 0)
(3.11313e-06 -2.24676e-06 0)
(3.09307e-06 -2.27125e-06 0)
(3.09899e-06 -2.30392e-06 0)
(3.12388e-06 -2.34307e-06 0)
(3.16246e-06 -2.38719e-06 0)
(3.21065e-06 -2.43361e-06 0)
(3.26412e-06 -2.47327e-06 0)
(2.986e-06 -2.47439e-06 0)
(2.8088e-06 -2.47531e-06 0)
(2.70331e-06 -2.49398e-06 0)
(2.6469e-06 -2.51896e-06 0)
(2.62471e-06 -2.55259e-06 0)
(2.62719e-06 -2.59146e-06 0)
(2.64754e-06 -2.63497e-06 0)
(2.68084e-06 -2.68239e-06 0)
(2.72292e-06 -2.73122e-06 0)
(2.77685e-06 -2.61669e-06 0)
(2.51644e-06 -2.66593e-06 0)
(2.35054e-06 -2.69733e-06 0)
(2.25114e-06 -2.73625e-06 0)
(2.19722e-06 -2.77434e-06 0)
(2.17468e-06 -2.81689e-06 0)
(2.17476e-06 -2.86177e-06 0)
(2.19105e-06 -2.90952e-06 0)
(2.21923e-06 -2.96006e-06 0)
(2.25515e-06 -3.01143e-06 0)
(2.2813e-06 -2.74156e-06 0)
(2.05005e-06 -2.8358e-06 0)
(1.90281e-06 -2.89572e-06 0)
(1.81414e-06 -2.95357e-06 0)
(1.76551e-06 -3.00391e-06 0)
(1.74431e-06 -3.05475e-06 0)
(1.74296e-06 -3.10516e-06 0)
(1.75568e-06 -3.15685e-06 0)
(1.7788e-06 -3.21026e-06 0)
(1.80839e-06 -3.26413e-06 0)
(1.77979e-06 -2.84508e-06 0)
(1.58802e-06 -2.97876e-06 0)
(1.46594e-06 -3.06368e-06 0)
(1.39214e-06 -3.1381e-06 0)
(1.35136e-06 -3.19912e-06 0)
(1.33311e-06 -3.25721e-06 0)
(1.33117e-06 -3.31244e-06 0)
(1.34067e-06 -3.36762e-06 0)
(1.35868e-06 -3.42352e-06 0)
(1.38181e-06 -3.47968e-06 0)
(1.27409e-06 -2.92491e-06 0)
(1.13044e-06 -3.09027e-06 0)
(1.03903e-06 -3.19526e-06 0)
(9.83669e-07 -3.28295e-06 0)
(9.5291e-07 -3.35257e-06 0)
(9.38888e-07 -3.41648e-06 0)
(9.36985e-07 -3.4756e-06 0)
(9.43535e-07 -3.53359e-06 0)
(9.56421e-07 -3.59148e-06 0)
(9.72982e-07 -3.64954e-06 0)
(7.65641e-07 -2.97918e-06 0)
(6.76716e-07 -3.16668e-06 0)
(6.20138e-07 -3.28571e-06 0)
(5.85761e-07 -3.38272e-06 0)
(5.66571e-07 -3.45835e-06 0)
(5.5774e-07 -3.52631e-06 0)
(5.56406e-07 -3.58816e-06 0)
(5.60243e-07 -3.64816e-06 0)
(5.67957e-07 -3.70749e-06 0)
(5.77896e-07 -3.76695e-06 0)
(2.55708e-07 -3.00652e-06 0)
(2.25558e-07 -3.20545e-06 0)
(2.06329e-07 -3.33173e-06 0)
(1.94654e-07 -3.43354e-06 0)
(1.88141e-07 -3.51226e-06 0)
(1.85083e-07 -3.58233e-06 0)
(1.84545e-07 -3.64558e-06 0)
(1.8579e-07 -3.7066e-06 0)
(1.88361e-07 -3.76666e-06 0)
(1.9166e-07 -3.82683e-06 0)
(7.25178e-06 -8.95723e-08 0)
(7.31738e-06 -6.46288e-08 0)
(7.3574e-06 -4.88254e-08 0)
(7.40071e-06 -3.95443e-08 0)
(7.44793e-06 -3.44022e-08 0)
(7.50582e-06 -3.20471e-08 0)
(7.57424e-06 -3.15527e-08 0)
(7.65394e-06 -3.22733e-08 0)
(7.74472e-06 -3.39101e-08 0)
(7.84538e-06 -3.58663e-08 0)
(7.19813e-06 -2.68695e-07 0)
(7.25286e-06 -1.95328e-07 0)
(7.28608e-06 -1.48939e-07 0)
(7.32482e-06 -1.21805e-07 0)
(7.36903e-06 -1.06844e-07 0)
(7.42476e-06 -1.00019e-07 0)
(7.49165e-06 -9.87239e-08 0)
(7.57012e-06 -1.01061e-07 0)
(7.65983e-06 -1.05985e-07 0)
(7.75936e-06 -1.11825e-07 0)
(7.09091e-06 -4.49337e-07 0)
(7.12495e-06 -3.31568e-07 0)
(7.14507e-06 -2.57169e-07 0)
(7.17514e-06 -2.13705e-07 0)
(7.21362e-06 -1.89889e-07 0)
(7.26532e-06 -1.79249e-07 0)
(7.32922e-06 -1.77461e-07 0)
(7.40525e-06 -1.81517e-07 0)
(7.49292e-06 -1.89716e-07 0)
(7.59026e-06 -1.99487e-07 0)
(6.93207e-06 -6.32244e-07 0)
(6.93669e-06 -4.76462e-07 0)
(6.93815e-06 -3.78126e-07 0)
(6.95588e-06 -3.20934e-07 0)
(6.98617e-06 -2.89763e-07 0)
(7.03206e-06 -2.76152e-07 0)
(7.09174e-06 -2.74307e-07 0)
(7.16437e-06 -2.8032e-07 0)
(7.24915e-06 -2.91832e-07 0)
(7.34346e-06 -3.05567e-07 0)
(6.72404e-06 -8.17923e-07 0)
(6.69233e-06 -6.32641e-07 0)
(6.67071e-06 -5.15699e-07 0)
(6.67313e-06 -4.48158e-07 0)
(6.6933e-06 -4.11677e-07 0)
(6.73201e-06 -3.96317e-07 0)
(6.78641e-06 -3.95085e-07 0)
(6.85477e-06 -4.03367e-07 0)
(6.93594e-06 -4.18196e-07 0)
(7.02656e-06 -4.3588e-07 0)
(6.47e-06 -1.00645e-06 0)
(6.39712e-06 -8.0179e-07 0)
(6.34945e-06 -6.72576e-07 0)
(6.33456e-06 -5.98687e-07 0)
(6.34322e-06 -5.5936e-07 0)
(6.37376e-06 -5.43718e-07 0)
(6.42215e-06 -5.43852e-07 0)
(6.48562e-06 -5.54723e-07 0)
(6.56263e-06 -5.72867e-07 0)
(6.64914e-06 -5.94485e-07 0)
(6.17368e-06 -1.19746e-06 0)
(6.05731e-06 -9.84601e-07 0)
(5.98213e-06 -8.5016e-07 0)
(5.94894e-06 -7.74362e-07 0)
(5.9454e-06 -7.3488e-07 0)
(5.9672e-06 -7.20561e-07 0)
(6.00912e-06 -7.22916e-07 0)
(6.06733e-06 -7.36758e-07 0)
(6.13976e-06 -7.58305e-07 0)
(6.22195e-06 -7.83824e-07 0)
(5.83902e-06 -1.39007e-06 0)
(5.67954e-06 -1.18062e-06 0)
(5.57708e-06 -1.04828e-06 0)
(5.52565e-06 -9.75171e-07 0)
(5.50989e-06 -9.38333e-07 0)
(5.52287e-06 -9.27019e-07 0)
(5.5581e-06 -9.32499e-07 0)
(5.61088e-06 -9.49761e-07 0)
(5.67845e-06 -9.74791e-07 0)
(5.75623e-06 -1.00423e-06 0)
(5.47035e-06 -1.58295e-06 0)
(5.27078e-06 -1.38825e-06 0)
(5.14302e-06 -1.26522e-06 0)
(5.07453e-06 -1.19933e-06 0)
(5.04722e-06 -1.16792e-06 0)
(5.05166e-06 -1.16127e-06 0)
(5.08024e-06 -1.17085e-06 0)
(5.12752e-06 -1.19193e-06 0)
(5.18989e-06 -1.22073e-06 0)
(5.26324e-06 -1.25391e-06 0)
(5.072e-06 -1.77424e-06 0)
(4.83791e-06 -1.60478e-06 0)
(4.68834e-06 -1.49773e-06 0)
(4.60493e-06 -1.4433e-06 0)
(4.56729e-06 -1.41991e-06 0)
(4.56384e-06 -1.4195e-06 0)
(4.58606e-06 -1.43408e-06 0)
(4.62787e-06 -1.45965e-06 0)
(4.6851e-06 -1.49245e-06 0)
(4.75362e-06 -1.53073e-06 0)
(7.95611e-06 -3.77962e-08 0)
(8.07681e-06 -3.82202e-08 0)
(8.20516e-06 -3.87193e-08 0)
(8.34071e-06 -3.90671e-08 0)
(8.48261e-06 -3.92251e-08 0)
(8.63034e-06 -3.91838e-08 0)
(8.78324e-06 -3.8902e-08 0)
(8.94071e-06 -3.83973e-08 0)
(9.10224e-06 -3.76539e-08 0)
(9.26735e-06 -3.66357e-08 0)
(9.43555e-06 -3.53071e-08 0)
(9.60631e-06 -3.36535e-08 0)
(9.77918e-06 -3.16596e-08 0)
(9.95364e-06 -2.93026e-08 0)
(1.01292e-05 -2.65382e-08 0)
(1.03053e-05 -2.33076e-08 0)
(1.04815e-05 -1.9538e-08 0)
(1.06567e-05 -1.51569e-08 0)
(1.08311e-05 -1.00601e-08 0)
(1.10019e-05 -4.21559e-09 0)
(7.87391e-06 -1.17229e-07 0)
(8.00148e-06 -1.17986e-07 0)
(8.13598e-06 -1.18999e-07 0)
(8.27689e-06 -1.19643e-07 0)
(8.42359e-06 -1.19765e-07 0)
(8.57554e-06 -1.19369e-07 0)
(8.73222e-06 -1.18334e-07 0)
(8.89313e-06 -1.16658e-07 0)
(9.05781e-06 -1.14245e-07 0)
(9.22579e-06 -1.11021e-07 0)
(9.39662e-06 -1.06924e-07 0)
(9.56983e-06 -1.01912e-07 0)
(9.74501e-06 -9.59063e-08 0)
(9.92163e-06 -8.88014e-08 0)
(1.00993e-05 -8.04591e-08 0)
(1.02773e-05 -7.0727e-08 0)
(1.04554e-05 -5.94048e-08 0)
(1.06323e-05 -4.62836e-08 0)
(1.08085e-05 -3.10428e-08 0)
(1.0981e-05 -1.35574e-08 0)
(7.71225e-06 -2.07206e-07 0)
(7.85333e-06 -2.06765e-07 0)
(7.99993e-06 -2.06891e-07 0)
(8.15128e-06 -2.06773e-07 0)
(8.30733e-06 -2.06004e-07 0)
(8.46759e-06 -2.04589e-07 0)
(8.6318e-06 -2.02247e-07 0)
(8.79947e-06 -1.98933e-07 0)
(8.97028e-06 -1.94464e-07 0)
(9.14386e-06 -1.88743e-07 0)
(9.31988e-06 -1.81671e-07 0)
(9.49792e-06 -1.73148e-07 0)
(9.6776e-06 -1.63004e-07 0)
(9.85844e-06 -1.51047e-07 0)
(1.00401e-05 -1.37052e-07 0)
(1.02219e-05 -1.20771e-07 0)
(1.04037e-05 -1.01875e-07 0)
(1.05843e-05 -8.00246e-08 0)
(1.0764e-05 -5.46848e-08 0)
(1.094e-05 -2.56193e-08 0)
(7.47607e-06 -3.13733e-07 0)
(7.63646e-06 -3.09679e-07 0)
(7.80054e-06 -3.06724e-07 0)
(7.96709e-06 -3.04191e-07 0)
(8.13681e-06 -3.01154e-07 0)
(8.30918e-06 -2.97629e-07 0)
(8.48432e-06 -2.93079e-07 0)
(8.66185e-06 -2.87406e-07 0)
(8.84171e-06 -2.80319e-07 0)
(9.02359e-06 -2.71676e-07 0)
(9.20725e-06 -2.61294e-07 0)
(9.39236e-06 -2.48981e-07 0)
(9.57863e-06 -2.34479e-07 0)
(9.76567e-06 -2.1752e-07 0)
(9.95318e-06 -1.97798e-07 0)
(1.01406e-05 -1.74944e-07 0)
(1.03278e-05 -1.48485e-07 0)
(1.05137e-05 -1.1794e-07 0)
(1.06985e-05 -8.25448e-08 0)
(1.08797e-05 -4.19716e-08 0)
(7.17237e-06 -4.42122e-07 0)
(7.35708e-06 -4.31382e-07 0)
(7.54336e-06 -4.22554e-07 0)
(7.72919e-06 -4.15465e-07 0)
(7.91635e-06 -4.0835e-07 0)
(8.10423e-06 -4.01242e-07 0)
(8.29346e-06 -3.93292e-07 0)
(8.48373e-06 -3.84319e-07 0)
(8.67523e-06 -3.73869e-07 0)
(8.86777e-06 -3.61695e-07 0)
(9.06127e-06 -3.47512e-07 0)
(9.25552e-06 -3.31027e-07 0)
(9.45034e-06 -3.11887e-07 0)
(9.64542e-06 -2.89736e-07 0)
(9.84057e-06 -2.64162e-07 0)
(1.00353e-05 -2.3467e-07 0)
(1.02294e-05 -2.0064e-07 0)
(1.0422e-05 -1.61448e-07 0)
(1.06135e-05 -1.16086e-07 0)
(1.08013e-05 -6.41246e-08 0)
(6.80987e-06 -5.96162e-07 0)
(7.02254e-06 -5.75197e-07 0)
(7.23478e-06 -5.57191e-07 0)
(7.44333e-06 -5.42932e-07 0)
(7.65122e-06 -5.29586e-07 0)
(7.85762e-06 -5.17146e-07 0)
(8.06366e-06 -5.04388e-07 0)
(8.2692e-06 -4.90944e-07 0)
(8.47465e-06 -4.762e-07 0)
(8.68e-06 -4.59769e-07 0)
(8.88534e-06 -4.41233e-07 0)
(9.09061e-06 -4.20167e-07 0)
(9.2957e-06 -3.96102e-07 0)
(9.50044e-06 -3.6857e-07 0)
(9.70474e-06 -3.37025e-07 0)
(9.90814e-06 -3.00849e-07 0)
(1.01107e-05 -2.59277e-07 0)
(1.03114e-05 -2.11533e-07 0)
(1.05109e-05 -1.56365e-07 0)
(1.07067e-05 -9.31972e-08 0)
(6.39859e-06 -7.78297e-07 0)
(6.6417e-06 -7.43445e-07 0)
(6.88265e-06 -7.12947e-07 0)
(7.11652e-06 -6.88731e-07 0)
(7.34758e-06 -6.66897e-07 0)
(7.57488e-06 -6.47192e-07 0)
(7.79992e-06 -6.28083e-07 0)
(8.0228e-06 -6.08894e-07 0)
(8.24416e-06 -5.88837e-07 0)
(8.46417e-06 -5.67327e-07 0)
(8.68307e-06 -5.43779e-07 0)
(8.90093e-06 -5.1761e-07 0)
(9.11779e-06 -4.88219e-07 0)
(9.33359e-06 -4.55019e-07 0)
(9.54835e-06 -4.17326e-07 0)
(9.76174e-06 -3.74392e-07 0)
(9.9739e-06 -3.25299e-07 0)
(1.01839e-05 -2.69097e-07 0)
(1.03926e-05 -2.0429e-07 0)
(1.05975e-05 -1.30146e-07 0)
(5.94873e-06 -9.88983e-07 0)
(6.22334e-06 -9.36304e-07 0)
(6.49444e-06 -8.90053e-07 0)
(6.7555e-06 -8.52772e-07 0)
(7.01154e-06 -8.20024e-07 0)
(7.26168e-06 -7.90945e-07 0)
(7.50759e-06 -7.63809e-07 0)
(7.74963e-06 -7.37533e-07 0)
(7.98856e-06 -7.11119e-07 0)
(8.22478e-06 -6.83716e-07 0)
(8.45866e-06 -6.54536e-07 0)
(8.69043e-06 -6.22816e-07 0)
(8.92027e-06 -5.87806e-07 0)
(9.14831e-06 -5.48775e-07 0)
(9.37463e-06 -5.04887e-07 0)
(9.59908e-06 -4.55252e-07 0)
(9.82184e-06 -3.9877e-07 0)
(1.00422e-05 -3.34314e-07 0)
(1.02609e-05 -2.60136e-07 0)
(1.04759e-05 -1.75349e-07 0)
(5.47114e-06 -1.22789e-06 0)
(5.77756e-06 -1.15393e-06 0)
(6.07898e-06 -1.08977e-06 0)
(6.36825e-06 -1.03675e-06 0)
(6.65017e-06 -9.91021e-07 0)
(6.92427e-06 -9.50684e-07 0)
(7.19217e-06 -9.13894e-07 0)
(7.45451e-06 -8.79132e-07 0)
(7.71216e-06 -8.4515e-07 0)
(7.96569e-06 -8.10831e-07 0)
(8.21563e-06 -7.75173e-07 0)
(8.46235e-06 -7.37231e-07 0)
(8.70621e-06 -6.96099e-07 0)
(8.94744e-06 -6.50882e-07 0)
(9.18624e-06 -6.00576e-07 0)
(9.42258e-06 -5.44134e-07 0)
(9.65676e-06 -4.80266e-07 0)
(9.88818e-06 -4.07667e-07 0)
(1.01177e-05 -3.24367e-07 0)
(1.03437e-05 -2.29344e-07 0)
(4.97481e-06 -1.491e-06 0)
(5.31334e-06 -1.3909e-06 0)
(5.64396e-06 -1.30669e-06 0)
(5.96223e-06 -1.23535e-06 0)
(6.27066e-06 -1.17438e-06 0)
(6.56975e-06 -1.12097e-06 0)
(6.86065e-06 -1.07304e-06 0)
(7.14427e-06 -1.0287e-06 0)
(7.42154e-06 -9.86349e-07 0)
(7.69321e-06 -9.44563e-07 0)
(7.95996e-06 -9.02079e-07 0)
(8.22233e-06 -8.57732e-07 0)
(8.48081e-06 -8.1042e-07 0)
(8.73579e-06 -7.59065e-07 0)
(8.98754e-06 -7.02486e-07 0)
(9.23622e-06 -6.39476e-07 0)
(9.4822e-06 -5.68559e-07 0)
(9.72512e-06 -4.88252e-07 0)
(9.96593e-06 -3.9637e-07 0)
(1.02033e-05 -2.91713e-07 0)
(4.60574e-06 -1.74362e-06 0)
(4.96633e-06 -1.62191e-06 0)
(5.31464e-06 -1.52262e-06 0)
(5.65074e-06 -1.43671e-06 0)
(5.97576e-06 -1.36239e-06 0)
(6.29062e-06 -1.29677e-06 0)
(6.59639e-06 -1.23771e-06 0)
(6.89397e-06 -1.18323e-06 0)
(7.18427e-06 -1.13161e-06 0)
(7.46806e-06 -1.08131e-06 0)
(7.74605e-06 -1.03093e-06 0)
(8.01883e-06 -9.79186e-07 0)
(8.28697e-06 -9.24843e-07 0)
(8.55091e-06 -8.66701e-07 0)
(8.81101e-06 -8.03475e-07 0)
(9.06755e-06 -7.3385e-07 0)
(9.32095e-06 -6.56277e-07 0)
(9.57112e-06 -5.69193e-07 0)
(9.81902e-06 -4.70365e-07 0)
(1.00638e-05 -3.58528e-07 0)
(4.39481e-06 -1.94897e-06 0)
(4.75765e-06 -1.82238e-06 0)
(5.10893e-06 -1.71446e-06 0)
(5.44963e-06 -1.61948e-06 0)
(5.77994e-06 -1.53572e-06 0)
(6.10047e-06 -1.46077e-06 0)
(6.412e-06 -1.3926e-06 0)
(6.71524e-06 -1.32935e-06 0)
(7.01094e-06 -1.26935e-06 0)
(7.29979e-06 -1.21107e-06 0)
(7.58246e-06 -1.15311e-06 0)
(7.85951e-06 -1.09417e-06 0)
(8.13151e-06 -1.03298e-06 0)
(8.39893e-06 -9.68326e-07 0)
(8.66212e-06 -8.98898e-07 0)
(8.9215e-06 -8.23374e-07 0)
(9.17747e-06 -7.40234e-07 0)
(9.43019e-06 -6.47952e-07 0)
(9.68056e-06 -5.44401e-07 0)
(9.92809e-06 -4.28348e-07 0)
(4.21455e-06 -2.146e-06 0)
(4.57373e-06 -2.01657e-06 0)
(4.92436e-06 -1.90313e-06 0)
(5.26579e-06 -1.80122e-06 0)
(5.59812e-06 -1.70967e-06 0)
(5.92141e-06 -1.62654e-06 0)
(6.2362e-06 -1.55007e-06 0)
(6.54294e-06 -1.47859e-06 0)
(6.84222e-06 -1.41056e-06 0)
(7.1346e-06 -1.34453e-06 0)
(7.42067e-06 -1.27913e-06 0)
(7.70092e-06 -1.21308e-06 0)
(7.97591e-06 -1.14513e-06 0)
(8.2461e-06 -1.07405e-06 0)
(8.51184e-06 -9.98549e-07 0)
(8.77362e-06 -9.1733e-07 0)
(9.03187e-06 -8.28929e-07 0)
(9.28689e-06 -7.31896e-07 0)
(9.53956e-06 -6.24228e-07 0)
(9.78972e-06 -5.04757e-07 0)
(4.0556e-06 -2.33567e-06 0)
(4.40952e-06 -2.20486e-06 0)
(4.75706e-06 -2.08733e-06 0)
(5.0968e-06 -1.97982e-06 0)
(5.42876e-06 -1.88163e-06 0)
(5.75262e-06 -1.79128e-06 0)
(6.06869e-06 -1.7073e-06 0)
(6.37718e-06 -1.62825e-06 0)
(6.67851e-06 -1.55271e-06 0)
(6.97311e-06 -1.47935e-06 0)
(7.26146e-06 -1.40688e-06 0)
(7.54399e-06 -1.33404e-06 0)
(7.8212e-06 -1.25963e-06 0)
(8.09352e-06 -1.18244e-06 0)
(8.36132e-06 -1.10122e-06 0)
(8.62512e-06 -1.01471e-06 0)
(8.88534e-06 -9.21546e-07 0)
(9.14243e-06 -8.20352e-07 0)
(9.39719e-06 -7.0927e-07 0)
(9.64979e-06 -5.87264e-07 0)
(3.9154e-06 -2.51738e-06 0)
(4.26269e-06 -2.38622e-06 0)
(4.60543e-06 -2.26604e-06 0)
(4.94167e-06 -2.15433e-06 0)
(5.2714e-06 -2.05077e-06 0)
(5.59406e-06 -1.9543e-06 0)
(5.90976e-06 -1.86374e-06 0)
(6.21848e-06 -1.77787e-06 0)
(6.52052e-06 -1.69546e-06 0)
(6.81616e-06 -1.6153e-06 0)
(7.10578e-06 -1.53618e-06 0)
(7.38971e-06 -1.45693e-06 0)
(7.66842e-06 -1.37641e-06 0)
(7.94228e-06 -1.29344e-06 0)
(8.21166e-06 -1.20685e-06 0)
(8.4771e-06 -1.11545e-06 0)
(8.739e-06 -1.01796e-06 0)
(8.99789e-06 -9.13099e-07 0)
(9.25453e-06 -7.99203e-07 0)
(9.50936e-06 -6.7543e-07 0)
(3.79061e-06 -2.69125e-06 0)
(4.13058e-06 -2.56056e-06 0)
(4.46746e-06 -2.43871e-06 0)
(4.79895e-06 -2.32387e-06 0)
(5.12514e-06 -2.21601e-06 0)
(5.44523e-06 -2.1144e-06 0)
(5.75923e-06 -2.01814e-06 0)
(6.06695e-06 -1.92624e-06 0)
(6.36855e-06 -1.83763e-06 0)
(6.66422e-06 -1.75126e-06 0)
(6.95421e-06 -1.66603e-06 0)
(7.23877e-06 -1.58086e-06 0)
(7.51831e-06 -1.49467e-06 0)
(7.79316e-06 -1.40636e-06 0)
(8.06368e-06 -1.31484e-06 0)
(8.33038e-06 -1.219e-06 0)
(8.59366e-06 -1.11764e-06 0)
(8.85409e-06 -1.00964e-06 0)
(9.1124e-06 -8.93538e-07 0)
(9.36921e-06 -7.68679e-07 0)
(3.6787e-06 -2.85754e-06 0)
(4.01094e-06 -2.72787e-06 0)
(4.34127e-06 -2.60516e-06 0)
(4.66718e-06 -2.48809e-06 0)
(4.98887e-06 -2.37689e-06 0)
(5.3054e-06 -2.27105e-06 0)
(5.61667e-06 -2.16996e-06 0)
(5.92241e-06 -2.07281e-06 0)
(6.22266e-06 -1.97872e-06 0)
(6.5175e-06 -1.88678e-06 0)
(6.80709e-06 -1.79601e-06 0)
(7.09161e-06 -1.70542e-06 0)
(7.37141e-06 -1.61405e-06 0)
(7.64676e-06 -1.52086e-06 0)
(7.918e-06 -1.42485e-06 0)
(8.18561e-06 -1.325e-06 0)
(8.44998e-06 -1.22025e-06 0)
(8.7117e-06 -1.10959e-06 0)
(8.97148e-06 -9.9182e-07 0)
(9.23e-06 -8.66379e-07 0)
(3.5773e-06 -3.01662e-06 0)
(3.90171e-06 -2.88836e-06 0)
(4.22509e-06 -2.76538e-06 0)
(4.54494e-06 -2.64681e-06 0)
(4.86148e-06 -2.53305e-06 0)
(5.17372e-06 -2.42379e-06 0)
(5.48152e-06 -2.31863e-06 0)
(5.78452e-06 -2.21697e-06 0)
(6.08267e-06 -2.11809e-06 0)
(6.37599e-06 -2.02122e-06 0)
(6.66454e-06 -1.9255e-06 0)
(6.94844e-06 -1.83007e-06 0)
(7.22801e-06 -1.73401e-06 0)
(7.50342e-06 -1.63643e-06 0)
(7.77502e-06 -1.53639e-06 0)
(8.04323e-06 -1.43299e-06 0)
(8.30841e-06 -1.3253e-06 0)
(8.57121e-06 -1.21247e-06 0)
(8.83222e-06 -1.0935e-06 0)
(9.0922e-06 -9.67865e-07 0)
(3.48434e-06 -3.16897e-06 0)
(3.80097e-06 -3.04234e-06 0)
(4.11724e-06 -2.91954e-06 0)
(4.43076e-06 -2.80004e-06 0)
(4.74174e-06 -2.68436e-06 0)
(5.04922e-06 -2.57237e-06 0)
(5.35302e-06 -2.46386e-06 0)
(5.65272e-06 -2.35838e-06 0)
(5.94823e-06 -2.25537e-06 0)
(6.23947e-06 -2.1542e-06 0)
(6.52648e-06 -2.05414e-06 0)
(6.80932e-06 -1.9544e-06 0)
(7.08823e-06 -1.8542e-06 0)
(7.36335e-06 -1.75272e-06 0)
(7.63498e-06 -1.64912e-06 0)
(7.90352e-06 -1.54263e-06 0)
(8.1693e-06 -1.43246e-06 0)
(8.43295e-06 -1.31788e-06 0)
(8.69496e-06 -1.19806e-06 0)
(8.95618e-06 -1.07258e-06 0)
(3.39798e-06 -3.31509e-06 0)
(3.70698e-06 -3.19021e-06 0)
(4.01615e-06 -3.06788e-06 0)
(4.32324e-06 -2.94788e-06 0)
(4.62846e-06 -2.83081e-06 0)
(4.9309e-06 -2.71667e-06 0)
(5.23036e-06 -2.60542e-06 0)
(5.52638e-06 -2.49677e-06 0)
(5.81884e-06 -2.39026e-06 0)
(6.10763e-06 -2.28541e-06 0)
(6.39272e-06 -2.18158e-06 0)
(6.67413e-06 -2.0781e-06 0)
(6.95206e-06 -1.97428e-06 0)
(7.22659e-06 -1.86939e-06 0)
(7.49799e-06 -1.76271e-06 0)
(7.76664e-06 -1.65359e-06 0)
(8.03281e-06 -1.54135e-06 0)
(8.2971e-06 -1.42539e-06 0)
(8.55991e-06 -1.305e-06 0)
(8.82214e-06 -1.18001e-06 0)
(3.31659e-06 -3.4555e-06 0)
(3.61819e-06 -3.33239e-06 0)
(3.92037e-06 -3.21072e-06 0)
(4.22106e-06 -3.09053e-06 0)
(4.52047e-06 -2.97249e-06 0)
(4.81774e-06 -2.85672e-06 0)
(5.11266e-06 -2.7433e-06 0)
(5.40478e-06 -2.63204e-06 0)
(5.69394e-06 -2.52263e-06 0)
(5.98002e-06 -2.41467e-06 0)
(6.26292e-06 -2.30763e-06 0)
(6.54265e-06 -2.20094e-06 0)
(6.81934e-06 -2.09399e-06 0)
(7.09307e-06 -1.98618e-06 0)
(7.36405e-06 -1.87688e-06 0)
(7.63261e-06 -1.76554e-06 0)
(7.899e-06 -1.65161e-06 0)
(8.16372e-06 -1.53455e-06 0)
(8.42718e-06 -1.41388e-06 0)
(8.69018e-06 -1.28954e-06 0)
(3.23871e-06 -3.59068e-06 0)
(3.53319e-06 -3.46928e-06 0)
(3.82855e-06 -3.34837e-06 0)
(4.12297e-06 -3.22825e-06 0)
(4.41663e-06 -3.10959e-06 0)
(4.70872e-06 -2.99262e-06 0)
(4.99904e-06 -2.87751e-06 0)
(5.28716e-06 -2.76417e-06 0)
(5.5729e-06 -2.65238e-06 0)
(5.85611e-06 -2.54183e-06 0)
(6.13667e-06 -2.4321e-06 0)
(6.41455e-06 -2.3227e-06 0)
(6.68985e-06 -2.21313e-06 0)
(6.96262e-06 -2.10286e-06 0)
(7.23303e-06 -1.99138e-06 0)
(7.50137e-06 -1.87822e-06 0)
(7.7678e-06 -1.7629e-06 0)
(8.03281e-06 -1.64502e-06 0)
(8.29674e-06 -1.52431e-06 0)
(8.56035e-06 -1.40069e-06 0)
(3.16304e-06 -3.72105e-06 0)
(3.45068e-06 -3.60125e-06 0)
(3.73948e-06 -3.4812e-06 0)
(4.02782e-06 -3.36132e-06 0)
(4.31585e-06 -3.24234e-06 0)
(4.60285e-06 -3.12453e-06 0)
(4.88863e-06 -3.00814e-06 0)
(5.17275e-06 -2.89316e-06 0)
(5.45504e-06 -2.77949e-06 0)
(5.73534e-06 -2.66685e-06 0)
(6.01349e-06 -2.55492e-06 0)
(6.28944e-06 -2.44331e-06 0)
(6.56328e-06 -2.33158e-06 0)
(6.835e-06 -2.2193e-06 0)
(7.10474e-06 -2.10604e-06 0)
(7.37272e-06 -1.99139e-06 0)
(7.63907e-06 -1.87498e-06 0)
(7.90426e-06 -1.75653e-06 0)
(8.16851e-06 -1.63593e-06 0)
(8.43256e-06 -1.51309e-06 0)
(3.08835e-06 -3.847e-06 0)
(3.36945e-06 -3.72872e-06 0)
(3.65196e-06 -3.60955e-06 0)
(3.93446e-06 -3.49005e-06 0)
(4.21706e-06 -3.37096e-06 0)
(4.49916e-06 -3.25262e-06 0)
(4.78053e-06 -3.13535e-06 0)
(5.06077e-06 -3.01916e-06 0)
(5.33969e-06 -2.90404e-06 0)
(5.61711e-06 -2.78977e-06 0)
(5.89287e-06 -2.6761e-06 0)
(6.1669e-06 -2.56271e-06 0)
(6.43925e-06 -2.44925e-06 0)
(6.70988e-06 -2.33536e-06 0)
(6.97888e-06 -2.22067e-06 0)
(7.24643e-06 -2.10483e-06 0)
(7.51261e-06 -1.98758e-06 0)
(7.77787e-06 -1.86879e-06 0)
(8.04234e-06 -1.74833e-06 0)
(8.30668e-06 -1.6263e-06 0)
(3.01338e-06 -3.96893e-06 0)
(3.28828e-06 -3.85206e-06 0)
(3.56481e-06 -3.73377e-06 0)
(3.84175e-06 -3.61477e-06 0)
(4.11922e-06 -3.49578e-06 0)
(4.39667e-06 -3.3772e-06 0)
(4.67387e-06 -3.25936e-06 0)
(4.95042e-06 -3.14233e-06 0)
(5.22613e-06 -3.02613e-06 0)
(5.5008e-06 -2.91063e-06 0)
(5.77427e-06 -2.79565e-06 0)
(6.04646e-06 -2.68092e-06 0)
(6.31737e-06 -2.56613e-06 0)
(6.58691e-06 -2.45099e-06 0)
(6.85514e-06 -2.33517e-06 0)
(7.12221e-06 -2.21842e-06 0)
(7.3882e-06 -2.10059e-06 0)
(7.65344e-06 -1.98157e-06 0)
(7.91805e-06 -1.86131e-06 0)
(8.18255e-06 -1.74001e-06 0)
(2.93699e-06 -4.08716e-06 0)
(3.20599e-06 -3.9717e-06 0)
(3.4768e-06 -3.85419e-06 0)
(3.74858e-06 -3.73577e-06 0)
(4.0213e-06 -3.61709e-06 0)
(4.29445e-06 -3.49851e-06 0)
(4.56779e-06 -3.38038e-06 0)
(4.84094e-06 -3.26285e-06 0)
(5.11367e-06 -3.14595e-06 0)
(5.38581e-06 -3.0296e-06 0)
(5.65718e-06 -2.91368e-06 0)
(5.92765e-06 -2.79797e-06 0)
(6.19719e-06 -2.68219e-06 0)
(6.46568e-06 -2.5661e-06 0)
(6.73316e-06 -2.44945e-06 0)
(6.99978e-06 -2.33206e-06 0)
(7.26555e-06 -2.21383e-06 0)
(7.53072e-06 -2.09463e-06 0)
(7.79536e-06 -1.97461e-06 0)
(8.05992e-06 -1.85396e-06 0)
(2.85794e-06 -4.20212e-06 0)
(3.12116e-06 -4.08765e-06 0)
(3.38655e-06 -3.9712e-06 0)
(3.65382e-06 -3.85359e-06 0)
(3.92221e-06 -3.73534e-06 0)
(4.19154e-06 -3.61696e-06 0)
(4.46142e-06 -3.49879e-06 0)
(4.73153e-06 -3.38103e-06 0)
(5.00164e-06 -3.26374e-06 0)
(5.27158e-06 -3.14688e-06 0)
(5.54109e-06 -3.03035e-06 0)
(5.81002e-06 -2.91396e-06 0)
(6.0783e-06 -2.79749e-06 0)
(6.34584e-06 -2.68074e-06 0)
(6.61265e-06 -2.56352e-06 0)
(6.87886e-06 -2.44569e-06 0)
(7.14436e-06 -2.32714e-06 0)
(7.40938e-06 -2.20783e-06 0)
(7.67398e-06 -2.08806e-06 0)
(7.93865e-06 -1.96795e-06 0)
(2.77434e-06 -4.31367e-06 0)
(3.03266e-06 -4.20039e-06 0)
(3.29362e-06 -4.0852e-06 0)
(3.55652e-06 -3.96842e-06 0)
(3.82114e-06 -3.8508e-06 0)
(4.08708e-06 -3.73282e-06 0)
(4.35401e-06 -3.61485e-06 0)
(4.62157e-06 -3.49714e-06 0)
(4.88952e-06 -3.37975e-06 0)
(5.1576e-06 -3.26265e-06 0)
(5.42553e-06 -3.14578e-06 0)
(5.69312e-06 -3.02899e-06 0)
(5.96036e-06 -2.91211e-06 0)
(6.22713e-06 -2.79495e-06 0)
(6.49336e-06 -2.67735e-06 0)
(6.75907e-06 -2.5592e-06 0)
(7.02424e-06 -2.44043e-06 0)
(7.2892e-06 -2.32112e-06 0)
(7.5538e-06 -2.20151e-06 0)
(7.81829e-06 -2.08182e-06 0)
(2.6851e-06 -4.42307e-06 0)
(2.93894e-06 -4.31116e-06 0)
(3.19585e-06 -4.19694e-06 0)
(3.4552e-06 -4.08106e-06 0)
(3.71671e-06 -3.96418e-06 0)
(3.97999e-06 -3.84678e-06 0)
(4.24468e-06 -3.72922e-06 0)
(4.51037e-06 -3.61174e-06 0)
(4.77668e-06 -3.49442e-06 0)
(5.04333e-06 -3.37729e-06 0)
(5.31006e-06 -3.2603e-06 0)
(5.57673e-06 -3.14332e-06 0)
(5.84319e-06 -3.02619e-06 0)
(6.1092e-06 -2.90879e-06 0)
(6.37484e-06 -2.79094e-06 0)
(6.6402e-06 -2.67258e-06 0)
(6.90513e-06 -2.55368e-06 0)
(7.16985e-06 -2.43436e-06 0)
(7.43439e-06 -2.31482e-06 0)
(7.69883e-06 -2.19541e-06 0)
(2.58906e-06 -4.52934e-06 0)
(2.83895e-06 -4.41899e-06 0)
(3.09249e-06 -4.30618e-06 0)
(3.34905e-06 -4.19149e-06 0)
(3.60831e-06 -4.07561e-06 0)
(3.86981e-06 -3.95902e-06 0)
(4.13304e-06 -3.84207e-06 0)
(4.39746e-06 -3.72502e-06 0)
(4.66274e-06 -3.60798e-06 0)
(4.92861e-06 -3.49098e-06 0)
(5.19467e-06 -3.37403e-06 0)
(5.46061e-06 -3.25701e-06 0)
(5.72644e-06 -3.13976e-06 0)
(5.99197e-06 -3.02221e-06 0)
(6.2571e-06 -2.90426e-06 0)
(6.522e-06 -2.78577e-06 0)
(6.78664e-06 -2.66684e-06 0)
(7.05112e-06 -2.54745e-06 0)
(7.31557e-06 -2.42793e-06 0)
(7.57989e-06 -2.30858e-06 0)
(1.91014e-07 -3.88838e-06 0)
(5.75634e-07 -3.83137e-06 0)
(9.68035e-07 -3.71948e-06 0)
(1.37257e-06 -3.55739e-06 0)
(1.7928e-06 -3.35113e-06 0)
(2.23096e-06 -3.10855e-06 0)
(2.6879e-06 -2.83843e-06 0)
(3.16284e-06 -2.55002e-06 0)
(3.65416e-06 -2.25264e-06 0)
(4.15788e-06 -1.95368e-06 0)
(1.85803e-07 -3.95243e-06 0)
(5.59593e-07 -3.90039e-06 0)
(9.39839e-07 -3.79813e-06 0)
(1.33018e-06 -3.64967e-06 0)
(1.73363e-06 -3.46012e-06 0)
(2.15207e-06 -3.23615e-06 0)
(2.58622e-06 -2.98522e-06 0)
(3.03534e-06 -2.71533e-06 0)
(3.49716e-06 -2.435e-06 0)
(3.96873e-06 -2.15042e-06 0)
(1.81159e-07 -4.01818e-06 0)
(5.45277e-07 -3.97065e-06 0)
(9.14617e-07 -3.87709e-06 0)
(1.29212e-06 -3.74107e-06 0)
(1.68027e-06 -3.567e-06 0)
(2.08064e-06 -3.36059e-06 0)
(2.49395e-06 -3.12828e-06 0)
(2.92005e-06 -2.87674e-06 0)
(3.35716e-06 -2.61349e-06 0)
(3.80354e-06 -2.34245e-06 0)
(1.76985e-07 -4.08565e-06 0)
(5.32469e-07 -4.04193e-06 0)
(8.92285e-07 -3.95577e-06 0)
(1.25881e-06 -3.83036e-06 0)
(1.63411e-06 -3.66953e-06 0)
(2.01945e-06 -3.47827e-06 0)
(2.41533e-06 -3.26236e-06 0)
(2.82162e-06 -3.0276e-06 0)
(3.23676e-06 -2.78107e-06 0)
(3.65929e-06 -2.5257e-06 0)
(1.73139e-07 -4.15477e-06 0)
(5.20609e-07 -4.11445e-06 0)
(8.71693e-07 -4.03491e-06 0)
(1.22827e-06 -3.91901e-06 0)
(1.59207e-06 -3.77019e-06 0)
(1.96412e-06 -3.59281e-06 0)
(2.34487e-06 -3.39205e-06 0)
(2.73419e-06 -3.17285e-06 0)
(3.13096e-06 -2.94166e-06 0)
(3.53306e-06 -2.70108e-06 0)
(1.69551e-07 -4.22543e-06 0)
(5.09595e-07 -4.18805e-06 0)
(8.52673e-07 -4.11429e-06 0)
(1.2003e-06 -4.00668e-06 0)
(1.55393e-06 -3.86838e-06 0)
(1.91437e-06 -3.70328e-06 0)
(2.28192e-06 -3.51608e-06 0)
(2.65637e-06 -3.31119e-06 0)
(3.03709e-06 -3.09442e-06 0)
(3.42141e-06 -2.86842e-06 0)
(1.6609e-07 -4.29753e-06 0)
(4.99085e-07 -4.26276e-06 0)
(8.34614e-07 -4.19417e-06 0)
(1.17397e-06 -4.09397e-06 0)
(1.51833e-06 -3.9651e-06 0)
(1.86837e-06 -3.81107e-06 0)
(2.22438e-06 -3.63613e-06 0)
(2.58588e-06 -3.44426e-06 0)
(2.95274e-06 -3.24063e-06 0)
(3.32177e-06 -3.02816e-06 0)
(1.6276e-07 -4.3709e-06 0)
(4.88964e-07 -4.33843e-06 0)
(8.17311e-07 -4.27441e-06 0)
(1.14893e-06 -4.18077e-06 0)
(1.48481e-06 -4.0603e-06 0)
(1.82543e-06 -3.91616e-06 0)
(2.1711e-06 -3.75227e-06 0)
(2.52118e-06 -3.57228e-06 0)
(2.87586e-06 -3.38072e-06 0)
(3.23172e-06 -3.1808e-06 0)
(1.59515e-07 -4.44541e-06 0)
(4.7905e-07 -4.41499e-06 0)
(8.00452e-07 -4.35506e-06 0)
(1.12471e-06 -4.26732e-06 0)
(1.45263e-06 -4.15439e-06 0)
(1.78463e-06 -4.01917e-06 0)
(2.12095e-06 -3.86523e-06 0)
(2.46086e-06 -3.69598e-06 0)
(2.80476e-06 -3.51542e-06 0)
(3.14921e-06 -3.32696e-06 0)
(1.56275e-07 -4.52089e-06 0)
(4.69214e-07 -4.49229e-06 0)
(7.8383e-07 -4.43601e-06 0)
(1.10098e-06 -4.35358e-06 0)
(1.42135e-06 -4.24743e-06 0)
(1.74529e-06 -4.12022e-06 0)
(2.07303e-06 -3.97527e-06 0)
(2.40376e-06 -3.81577e-06 0)
(2.738e-06 -3.64527e-06 0)
(3.07245e-06 -3.46725e-06 0)
(1.52984e-07 -4.59716e-06 0)
(4.59345e-07 -4.57019e-06 0)
(7.67222e-07 -4.51722e-06 0)
(1.0774e-06 -4.43958e-06 0)
(1.39048e-06 -4.33955e-06 0)
(1.70679e-06 -4.2196e-06 0)
(2.02651e-06 -4.08277e-06 0)
(2.34884e-06 -3.93212e-06 0)
(2.67432e-06 -3.77076e-06 0)
(2.99991e-06 -3.6022e-06 0)
(1.49641e-07 -4.67399e-06 0)
(4.4936e-07 -4.64851e-06 0)
(7.50452e-07 -4.59855e-06 0)
(1.05369e-06 -4.52526e-06 0)
(1.35963e-06 -4.43077e-06 0)
(1.66855e-06 -4.3174e-06 0)
(1.98067e-06 -4.18795e-06 0)
(2.29519e-06 -4.04532e-06 0)
(2.61262e-06 -3.89228e-06 0)
(2.93022e-06 -3.7323e-06 0)
(1.4623e-07 -4.75121e-06 0)
(4.39132e-07 -4.72711e-06 0)
(7.33306e-07 -4.67989e-06 0)
(1.02954e-06 -4.61056e-06 0)
(1.32838e-06 -4.52111e-06 0)
(1.63006e-06 -4.41374e-06 0)
(1.93484e-06 -4.29101e-06 0)
(2.24196e-06 -4.15567e-06 0)
(2.55188e-06 -4.01021e-06 0)
(2.86219e-06 -3.858e-06 0)
(1.42699e-07 -4.82858e-06 0)
(4.28505e-07 -4.80576e-06 0)
(7.15553e-07 -4.76102e-06 0)
(1.00462e-06 -4.69532e-06 0)
(1.29629e-06 -4.6105e-06 0)
(1.59077e-06 -4.50861e-06 0)
(1.88834e-06 -4.39204e-06 0)
(2.18833e-06 -4.26333e-06 0)
(2.49113e-06 -4.12482e-06 0)
(2.79466e-06 -3.97969e-06 0)
(1.38977e-07 -4.90591e-06 0)
(4.17323e-07 -4.88426e-06 0)
(6.9695e-07 -4.84181e-06 0)
(9.78613e-07 -4.77947e-06 0)
(1.26292e-06 -4.69892e-06 0)
(1.55011e-06 -4.60209e-06 0)
(1.84046e-06 -4.49116e-06 0)
(2.13345e-06 -4.36854e-06 0)
(2.42937e-06 -4.23642e-06 0)
(2.72646e-06 -4.09773e-06 0)
(1.35013e-07 -4.98278e-06 0)
(4.0546e-07 -4.96224e-06 0)
(6.77266e-07 -4.92191e-06 0)
(9.5116e-07 -4.8627e-06 0)
(1.2278e-06 -4.78611e-06 0)
(1.50748e-06 -4.69396e-06 0)
(1.79051e-06 -4.58826e-06 0)
(2.07651e-06 -4.47131e-06 0)
(2.36564e-06 -4.34509e-06 0)
(2.65648e-06 -4.2123e-06 0)
(1.30767e-07 -5.05909e-06 0)
(3.92766e-07 -5.0396e-06 0)
(6.56209e-07 -5.00128e-06 0)
(9.21841e-07 -4.94499e-06 0)
(1.19038e-06 -4.87214e-06 0)
(1.4622e-06 -4.78438e-06 0)
(1.73767e-06 -4.68359e-06 0)
(2.0165e-06 -4.57195e-06 0)
(2.29882e-06 -4.45119e-06 0)
(2.58341e-06 -4.32392e-06 0)
(1.26189e-07 -5.13399e-06 0)
(3.79065e-07 -5.11551e-06 0)
(6.33473e-07 -5.0791e-06 0)
(8.90226e-07 -5.02561e-06 0)
(1.15011e-06 -4.9563e-06 0)
(1.41361e-06 -4.87272e-06 0)
(1.6811e-06 -4.77662e-06 0)
(1.95242e-06 -4.67e-06 0)
(2.22767e-06 -4.55444e-06 0)
(2.50596e-06 -4.43235e-06 0)
(1.21183e-07 -5.2079e-06 0)
(3.6407e-07 -5.19038e-06 0)
(6.08592e-07 -5.15583e-06 0)
(8.55667e-07 -5.10504e-06 0)
(1.10616e-06 -5.03916e-06 0)
(1.36065e-06 -4.95963e-06 0)
(1.61959e-06 -4.86806e-06 0)
(1.88292e-06 -4.76623e-06 0)
(2.15075e-06 -4.6557e-06 0)
(2.42251e-06 -4.53855e-06 0)
(1.157e-07 -5.27857e-06 0)
(3.4765e-07 -5.26199e-06 0)
(5.81351e-07 -5.22928e-06 0)
(8.17855e-07 -5.18117e-06 0)
(1.05812e-06 -5.1187e-06 0)
(1.30283e-06 -5.04322e-06 0)
(1.55248e-06 -4.95615e-06 0)
(1.80721e-06 -4.85913e-06 0)
(2.06718e-06 -4.75363e-06 0)
(2.3321e-06 -4.64148e-06 0)
)


// ************************************************************************* //
