/*--------------------------------*- C++ -*----------------------------------*\
| =========                 |                                                 |
| \\      /  F ield         | foam-extend: Open Source CFD                    |
|  \\    /   O peration     | Version:     4.1                                |
|   \\  /    A nd           | Web:         http://www.foam-extend.org         |
|    \\/     M anipulation  |                                                 |
\*---------------------------------------------------------------------------*/
FoamFile
{
    version     2.0;
    format      ascii;
    class       vectorField;
    location    "9";
    object      solidsCellD_iteration11;
}
// * * * * * * * * * * * * * * * * * * * * * * * * * * * * * * * * * * * * * //


1000
(
(4.69503e-06 -2.0069e-06 0)
(4.4278e-06 -1.86677e-06 0)
(4.25672e-06 -1.77754e-06 0)
(4.1581e-06 -1.73542e-06 0)
(4.10939e-06 -1.7202e-06 0)
(4.09713e-06 -1.72579e-06 0)
(4.11166e-06 -1.74491e-06 0)
(4.14634e-06 -1.77412e-06 0)
(4.19615e-06 -1.81013e-06 0)
(4.25767e-06 -1.85091e-06 0)
(4.24485e-06 -2.19211e-06 0)
(3.96029e-06 -2.09422e-06 0)
(3.77831e-06 -2.03167e-06 0)
(3.67169e-06 -2.00769e-06 0)
(3.61677e-06 -2.00451e-06 0)
(3.59892e-06 -2.01859e-06 0)
(3.60812e-06 -2.04378e-06 0)
(3.63727e-06 -2.07751e-06 0)
(3.68114e-06 -2.11726e-06 0)
(3.73558e-06 -2.16034e-06 0)
(3.77721e-06 -2.36764e-06 0)
(3.48652e-06 -2.31697e-06 0)
(3.30077e-06 -2.2843e-06 0)
(3.1907e-06 -2.28037e-06 0)
(3.13244e-06 -2.2903e-06 0)
(3.11076e-06 -2.31343e-06 0)
(3.11562e-06 -2.34494e-06 0)
(3.13985e-06 -2.38317e-06 0)
(3.17815e-06 -2.4265e-06 0)
(3.22647e-06 -2.47202e-06 0)
(3.2956e-06 -2.53041e-06 0)
(3.01097e-06 -2.52928e-06 0)
(2.82915e-06 -2.52798e-06 0)
(2.72048e-06 -2.54496e-06 0)
(2.66189e-06 -2.56851e-06 0)
(2.63824e-06 -2.60095e-06 0)
(2.63978e-06 -2.63881e-06 0)
(2.65957e-06 -2.68154e-06 0)
(2.69264e-06 -2.72827e-06 0)
(2.73484e-06 -2.77642e-06 0)
(2.80333e-06 -2.6772e-06 0)
(2.53683e-06 -2.72519e-06 0)
(2.36668e-06 -2.75499e-06 0)
(2.2644e-06 -2.79263e-06 0)
(2.20852e-06 -2.82956e-06 0)
(2.18467e-06 -2.87114e-06 0)
(2.18391e-06 -2.91516e-06 0)
(2.19976e-06 -2.96226e-06 0)
(2.22777e-06 -3.01225e-06 0)
(2.26378e-06 -3.06311e-06 0)
(2.30278e-06 -2.80503e-06 0)
(2.06622e-06 -2.89896e-06 0)
(1.91526e-06 -2.95789e-06 0)
(1.82406e-06 -3.01486e-06 0)
(1.77372e-06 -3.0643e-06 0)
(1.7514e-06 -3.11435e-06 0)
(1.74937e-06 -3.16406e-06 0)
(1.76174e-06 -3.21522e-06 0)
(1.78471e-06 -3.26819e-06 0)
(1.81435e-06 -3.3217e-06 0)
(1.79641e-06 -2.911e-06 0)
(1.60025e-06 -3.0452e-06 0)
(1.4751e-06 -3.12969e-06 0)
(1.39922e-06 -3.20359e-06 0)
(1.35707e-06 -3.26395e-06 0)
(1.33793e-06 -3.3214e-06 0)
(1.33544e-06 -3.37606e-06 0)
(1.34465e-06 -3.4308e-06 0)
(1.36254e-06 -3.48636e-06 0)
(1.38569e-06 -3.54227e-06 0)
(1.28592e-06 -2.99276e-06 0)
(1.13897e-06 -3.15932e-06 0)
(1.04528e-06 -3.2643e-06 0)
(9.88368e-07 -3.35174e-06 0)
(9.56612e-07 -3.42089e-06 0)
(9.4195e-07 -3.4843e-06 0)
(9.39641e-07 -3.54297e-06 0)
(9.45962e-07 -3.60059e-06 0)
(9.58748e-07 -3.65822e-06 0)
(9.7532e-07 -3.71613e-06 0)
(7.72713e-07 -3.04835e-06 0)
(6.81739e-07 -3.2375e-06 0)
(6.23769e-07 -3.35681e-06 0)
(5.88456e-07 -3.45379e-06 0)
(5.68653e-07 -3.52908e-06 0)
(5.59402e-07 -3.59663e-06 0)
(5.57814e-07 -3.6581e-06 0)
(5.61532e-07 -3.71779e-06 0)
(5.69196e-07 -3.7769e-06 0)
(5.79137e-07 -3.83625e-06 0)
(2.58064e-07 -3.07635e-06 0)
(2.27248e-07 -3.27719e-06 0)
(2.07527e-07 -3.40389e-06 0)
(1.95513e-07 -3.50576e-06 0)
(1.88805e-07 -3.58422e-06 0)
(1.85621e-07 -3.65395e-06 0)
(1.84985e-07 -3.71685e-06 0)
(1.86181e-07 -3.77758e-06 0)
(1.88742e-07 -3.83746e-06 0)
(1.92046e-07 -3.89758e-06 0)
(7.33211e-06 -9.16138e-08 0)
(7.39879e-06 -6.59993e-08 0)
(7.43868e-06 -4.9737e-08 0)
(7.48153e-06 -4.01433e-08 0)
(7.52806e-06 -3.47803e-08 0)
(7.5852e-06 -3.22889e-08 0)
(7.65289e-06 -3.17279e-08 0)
(7.73194e-06 -3.23725e-08 0)
(7.82218e-06 -3.39746e-08 0)
(7.92238e-06 -3.59343e-08 0)
(7.27766e-06 -2.7485e-07 0)
(7.33325e-06 -1.99499e-07 0)
(7.3662e-06 -1.51715e-07 0)
(7.40438e-06 -1.23681e-07 0)
(7.44782e-06 -1.08137e-07 0)
(7.50274e-06 -1.00869e-07 0)
(7.56888e-06 -9.93166e-08 0)
(7.64666e-06 -1.01502e-07 0)
(7.7358e-06 -1.06359e-07 0)
(7.83484e-06 -1.12155e-07 0)
(7.16896e-06 -4.59611e-07 0)
(7.20337e-06 -3.38661e-07 0)
(7.22293e-06 -2.62022e-07 0)
(7.25223e-06 -2.17048e-07 0)
(7.28981e-06 -1.92255e-07 0)
(7.34061e-06 -1.8095e-07 0)
(7.40366e-06 -1.78773e-07 0)
(7.479e-06 -1.82573e-07 0)
(7.56603e-06 -1.90638e-07 0)
(7.66282e-06 -2.00332e-07 0)
(7.00793e-06 -6.46727e-07 0)
(7.01224e-06 -4.8668e-07 0)
(7.0127e-06 -3.85364e-07 0)
(7.02938e-06 -3.26171e-07 0)
(7.05857e-06 -2.93684e-07 0)
(7.10348e-06 -2.79167e-07 0)
(7.16221e-06 -2.76765e-07 0)
(7.23406e-06 -2.82416e-07 0)
(7.31812e-06 -2.93711e-07 0)
(7.41176e-06 -3.0734e-07 0)
(6.7971e-06 -8.36666e-07 0)
(6.7642e-06 -6.4624e-07 0)
(6.74105e-06 -5.25696e-07 0)
(6.74207e-06 -4.55747e-07 0)
(6.76091e-06 -4.17677e-07 0)
(6.79848e-06 -4.01215e-07 0)
(6.85182e-06 -3.9927e-07 0)
(6.9193e-06 -4.07088e-07 0)
(6.99966e-06 -4.21611e-07 0)
(7.08949e-06 -4.39148e-07 0)
(6.53963e-06 -1.02954e-06 0)
(6.46463e-06 -8.19096e-07 0)
(6.41484e-06 -6.85817e-07 0)
(6.39816e-06 -6.09199e-07 0)
(6.40523e-06 -5.68062e-07 0)
(6.43442e-06 -5.51159e-07 0)
(6.48162e-06 -5.50456e-07 0)
(6.5441e-06 -5.60769e-07 0)
(6.62018e-06 -5.78532e-07 0)
(6.70572e-06 -5.99953e-07 0)
(6.23939e-06 -1.22497e-06 0)
(6.11989e-06 -1.00596e-06 0)
(6.04194e-06 -8.67156e-07 0)
(6.00656e-06 -7.88408e-07 0)
(6.00115e-06 -7.46941e-07 0)
(6.02144e-06 -7.31246e-07 0)
(6.06203e-06 -7.32674e-07 0)
(6.11913e-06 -7.45856e-07 0)
(6.19051e-06 -7.66923e-07 0)
(6.2715e-06 -7.92163e-07 0)
(5.9004e-06 -1.42204e-06 0)
(5.73679e-06 -1.20635e-06 0)
(5.63098e-06 -1.06952e-06 0)
(5.57696e-06 -9.93367e-07 0)
(5.5591e-06 -9.54435e-07 0)
(5.57038e-06 -9.41676e-07 0)
(5.60414e-06 -9.46175e-07 0)
(5.65567e-06 -9.62705e-07 0)
(5.72204e-06 -9.87168e-07 0)
(5.79835e-06 -1.01624e-06 0)
(5.52706e-06 -1.61938e-06 0)
(5.32247e-06 -1.41862e-06 0)
(5.19079e-06 -1.29116e-06 0)
(5.11933e-06 -1.22224e-06 0)
(5.0897e-06 -1.18869e-06 0)
(5.09226e-06 -1.18054e-06 0)
(5.11924e-06 -1.18908e-06 0)
(5.16514e-06 -1.20936e-06 0)
(5.22627e-06 -1.23752e-06 0)
(5.29794e-06 -1.2702e-06 0)
(5.12382e-06 -1.81513e-06 0)
(4.88397e-06 -1.64002e-06 0)
(4.73002e-06 -1.52873e-06 0)
(4.64338e-06 -1.47138e-06 0)
(4.60325e-06 -1.44587e-06 0)
(4.59786e-06 -1.44391e-06 0)
(4.61848e-06 -1.45737e-06 0)
(4.6588e-06 -1.48203e-06 0)
(4.71472e-06 -1.51402e-06 0)
(4.78148e-06 -1.5517e-06 0)
(8.03285e-06 -3.78593e-08 0)
(8.1533e-06 -3.82313e-08 0)
(8.28144e-06 -3.86906e-08 0)
(8.41683e-06 -3.90053e-08 0)
(8.5586e-06 -3.91387e-08 0)
(8.70622e-06 -3.90737e-08 0)
(8.85902e-06 -3.87481e-08 0)
(9.0164e-06 -3.81899e-08 0)
(9.17787e-06 -3.73995e-08 0)
(9.34294e-06 -3.63349e-08 0)
(9.51109e-06 -3.49559e-08 0)
(9.6818e-06 -3.32449e-08 0)
(9.85461e-06 -3.11811e-08 0)
(1.0029e-05 -2.87433e-08 0)
(1.02045e-05 -2.58926e-08 0)
(1.03804e-05 -2.25683e-08 0)
(1.05564e-05 -1.86916e-08 0)
(1.07312e-05 -1.4188e-08 0)
(1.09053e-05 -8.95197e-09 0)
(1.10756e-05 -2.94475e-09 0)
(7.94921e-06 -1.17498e-07 0)
(8.07667e-06 -1.18084e-07 0)
(8.21107e-06 -1.18979e-07 0)
(8.35192e-06 -1.1952e-07 0)
(8.49856e-06 -1.19533e-07 0)
(8.65045e-06 -1.19035e-07 0)
(8.8071e-06 -1.17893e-07 0)
(8.96798e-06 -1.161e-07 0)
(9.13265e-06 -1.1356e-07 0)
(9.30061e-06 -1.10184e-07 0)
(9.4714e-06 -1.05918e-07 0)
(9.64458e-06 -1.00727e-07 0)
(9.81972e-06 -9.45207e-08 0)
(9.99628e-06 -8.71875e-08 0)
(1.01738e-05 -7.85871e-08 0)
(1.03517e-05 -6.85615e-08 0)
(1.05296e-05 -5.69041e-08 0)
(1.07063e-05 -4.34036e-08 0)
(1.08822e-05 -2.77297e-08 0)
(1.10542e-05 -9.74648e-09 0)
(7.78478e-06 -2.07938e-07 0)
(7.92602e-06 -2.07185e-07 0)
(8.07273e-06 -2.07086e-07 0)
(8.22417e-06 -2.06776e-07 0)
(8.3803e-06 -2.05815e-07 0)
(8.54064e-06 -2.04218e-07 0)
(8.70491e-06 -2.01673e-07 0)
(8.87262e-06 -1.98136e-07 0)
(9.04348e-06 -1.93433e-07 0)
(9.2171e-06 -1.87455e-07 0)
(9.39313e-06 -1.80108e-07 0)
(9.57116e-06 -1.7129e-07 0)
(9.75082e-06 -1.60815e-07 0)
(9.93162e-06 -1.4848e-07 0)
(1.01132e-05 -1.34058e-07 0)
(1.02949e-05 -1.17297e-07 0)
(1.04765e-05 -9.78527e-08 0)
(1.06569e-05 -7.53713e-08 0)
(1.08363e-05 -4.92944e-08 0)
(1.10119e-05 -1.93763e-08 0)
(7.54455e-06 -3.15314e-07 0)
(7.7055e-06 -3.10775e-07 0)
(7.86998e-06 -3.07449e-07 0)
(8.03687e-06 -3.04591e-07 0)
(8.20689e-06 -3.01236e-07 0)
(8.3795e-06 -2.97413e-07 0)
(8.55484e-06 -2.92539e-07 0)
(8.73253e-06 -2.86534e-07 0)
(8.91254e-06 -2.79107e-07 0)
(9.09453e-06 -2.70092e-07 0)
(9.27827e-06 -2.59309e-07 0)
(9.46343e-06 -2.46565e-07 0)
(9.64973e-06 -2.31588e-07 0)
(9.83677e-06 -2.141e-07 0)
(1.00243e-05 -1.93792e-07 0)
(1.02116e-05 -1.70282e-07 0)
(1.03987e-05 -1.4308e-07 0)
(1.05843e-05 -1.11672e-07 0)
(1.07689e-05 -7.52553e-08 0)
(1.09497e-05 -3.35003e-08 0)
(7.23575e-06 -4.4506e-07 0)
(7.42147e-06 -4.336e-07 0)
(7.60849e-06 -4.24209e-07 0)
(7.79496e-06 -4.16624e-07 0)
(7.98267e-06 -4.09025e-07 0)
(8.17101e-06 -4.01473e-07 0)
(8.3606e-06 -3.93053e-07 0)
(8.55118e-06 -3.83612e-07 0)
(8.74293e-06 -3.72679e-07 0)
(8.93565e-06 -3.59988e-07 0)
(9.12931e-06 -3.45266e-07 0)
(9.32369e-06 -3.28219e-07 0)
(9.51861e-06 -3.08472e-07 0)
(9.71377e-06 -2.85648e-07 0)
(9.90894e-06 -2.59328e-07 0)
(1.01036e-05 -2.29002e-07 0)
(1.02977e-05 -1.94032e-07 0)
(1.04902e-05 -1.53751e-07 0)
(1.06815e-05 -1.07097e-07 0)
(1.0869e-05 -5.36513e-08 0)
(6.86715e-06 -6.01087e-07 0)
(7.08135e-06 -5.79077e-07 0)
(7.29476e-06 -5.60244e-07 0)
(7.5043e-06 -5.45259e-07 0)
(7.71303e-06 -5.31211e-07 0)
(7.92013e-06 -5.1813e-07 0)
(8.12669e-06 -5.04702e-07 0)
(8.33269e-06 -4.9061e-07 0)
(8.53854e-06 -4.75228e-07 0)
(8.74421e-06 -4.58141e-07 0)
(8.94982e-06 -4.38933e-07 0)
(9.15531e-06 -4.17173e-07 0)
(9.3606e-06 -3.92359e-07 0)
(9.56548e-06 -3.64003e-07 0)
(9.76985e-06 -3.31554e-07 0)
(9.97331e-06 -2.9438e-07 0)
(1.01759e-05 -2.51681e-07 0)
(1.03765e-05 -2.02641e-07 0)
(1.05759e-05 -1.45936e-07 0)
(1.07715e-05 -8.10012e-08 0)
(6.44908e-06 -7.85825e-07 0)
(6.69423e-06 -7.49561e-07 0)
(6.93674e-06 -7.17918e-07 0)
(7.17194e-06 -6.92678e-07 0)
(7.40411e-06 -6.69861e-07 0)
(7.63235e-06 -6.49251e-07 0)
(7.85814e-06 -6.29259e-07 0)
(8.08167e-06 -6.09232e-07 0)
(8.30358e-06 -5.88366e-07 0)
(8.52406e-06 -5.66044e-07 0)
(8.74337e-06 -5.41675e-07 0)
(8.96157e-06 -5.1466e-07 0)
(9.17872e-06 -4.8437e-07 0)
(9.39477e-06 -4.50196e-07 0)
(9.6097e-06 -4.1145e-07 0)
(9.82325e-06 -3.67369e-07 0)
(1.00355e-05 -3.16975e-07 0)
(1.02456e-05 -2.59285e-07 0)
(1.04542e-05 -1.92726e-07 0)
(1.0659e-05 -1.16574e-07 0)
(5.99188e-06 -9.99797e-07 0)
(6.26895e-06 -9.4522e-07 0)
(6.54198e-06 -8.97412e-07 0)
(6.80467e-06 -8.58733e-07 0)
(7.06213e-06 -8.24704e-07 0)
(7.31341e-06 -7.94438e-07 0)
(7.56033e-06 -7.66189e-07 0)
(7.80321e-06 -7.38868e-07 0)
(8.04288e-06 -7.11453e-07 0)
(8.27973e-06 -6.83065e-07 0)
(8.51418e-06 -6.52902e-07 0)
(8.74644e-06 -6.2018e-07 0)
(8.97673e-06 -5.84121e-07 0)
(9.20514e-06 -5.43973e-07 0)
(9.43178e-06 -4.98891e-07 0)
(9.65649e-06 -4.47959e-07 0)
(9.87943e-06 -3.90014e-07 0)
(1.00999e-05 -3.23897e-07 0)
(1.03187e-05 -2.47785e-07 0)
(1.05338e-05 -1.60788e-07 0)
(5.50681e-06 -1.24258e-06 0)
(5.81584e-06 -1.16629e-06 0)
(6.11942e-06 -1.10018e-06 0)
(6.41053e-06 -1.04534e-06 0)
(6.69407e-06 -9.97954e-07 0)
(6.96953e-06 -9.56097e-07 0)
(7.23865e-06 -9.17913e-07 0)
(7.50206e-06 -8.81856e-07 0)
(7.76066e-06 -8.46658e-07 0)
(8.01505e-06 -8.11166e-07 0)
(8.26575e-06 -7.74357e-07 0)
(8.51318e-06 -7.3526e-07 0)
(8.75766e-06 -6.92932e-07 0)
(8.99945e-06 -6.46454e-07 0)
(9.23874e-06 -5.94811e-07 0)
(9.47552e-06 -5.36918e-07 0)
(9.71002e-06 -4.71429e-07 0)
(9.94175e-06 -3.97009e-07 0)
(1.01715e-05 -3.11619e-07 0)
(1.03977e-05 -2.14222e-07 0)
(5.00297e-06 -1.50982e-06 0)
(5.34398e-06 -1.40682e-06 0)
(5.67678e-06 -1.32016e-06 0)
(5.997e-06 -1.24659e-06 0)
(6.30718e-06 -1.18365e-06 0)
(6.60786e-06 -1.12845e-06 0)
(6.9002e-06 -1.07891e-06 0)
(7.18514e-06 -1.03307e-06 0)
(7.46362e-06 -9.89312e-07 0)
(7.73641e-06 -9.46189e-07 0)
(8.00418e-06 -9.02401e-07 0)
(8.2675e-06 -8.56757e-07 0)
(8.52685e-06 -8.08112e-07 0)
(8.78261e-06 -7.55362e-07 0)
(9.03509e-06 -6.9731e-07 0)
(9.28441e-06 -6.32702e-07 0)
(9.53093e-06 -5.60021e-07 0)
(9.77436e-06 -4.77743e-07 0)
(1.00156e-05 -3.83637e-07 0)
(1.02534e-05 -2.76463e-07 0)
(4.63027e-06 -1.76499e-06 0)
(4.99205e-06 -1.64063e-06 0)
(5.34196e-06 -1.53878e-06 0)
(5.67982e-06 -1.45042e-06 0)
(6.0066e-06 -1.37392e-06 0)
(6.32316e-06 -1.30632e-06 0)
(6.63051e-06 -1.24544e-06 0)
(6.92958e-06 -1.18929e-06 0)
(7.22126e-06 -1.13612e-06 0)
(7.50633e-06 -1.08433e-06 0)
(7.78549e-06 -1.03251e-06 0)
(8.05937e-06 -9.79332e-07 0)
(8.32852e-06 -9.23531e-07 0)
(8.59338e-06 -8.63871e-07 0)
(8.85433e-06 -7.99052e-07 0)
(9.11162e-06 -7.27706e-07 0)
(9.3657e-06 -6.48263e-07 0)
(9.61651e-06 -5.59096e-07 0)
(9.86499e-06 -4.57943e-07 0)
(1.01102e-05 -3.43485e-07 0)
(4.41652e-06 -1.97167e-06 0)
(4.78075e-06 -1.84258e-06 0)
(5.13352e-06 -1.73227e-06 0)
(5.47583e-06 -1.63492e-06 0)
(5.80777e-06 -1.54896e-06 0)
(6.12989e-06 -1.47196e-06 0)
(6.44293e-06 -1.40187e-06 0)
(6.74761e-06 -1.33684e-06 0)
(7.04466e-06 -1.27517e-06 0)
(7.33477e-06 -1.21528e-06 0)
(7.61859e-06 -1.15576e-06 0)
(7.89672e-06 -1.09528e-06 0)
(8.16972e-06 -1.03253e-06 0)
(8.43802e-06 -9.66255e-07 0)
(8.70206e-06 -8.9514e-07 0)
(8.96219e-06 -8.17797e-07 0)
(9.21885e-06 -7.32711e-07 0)
(9.4722e-06 -6.38271e-07 0)
(9.72316e-06 -5.32327e-07 0)
(9.97121e-06 -4.13619e-07 0)
(4.23308e-06 -2.17039e-06 0)
(4.59384e-06 -2.03824e-06 0)
(4.94605e-06 -1.92238e-06 0)
(5.28909e-06 -1.81813e-06 0)
(5.62299e-06 -1.72437e-06 0)
(5.94781e-06 -1.63914e-06 0)
(6.26406e-06 -1.56069e-06 0)
(6.57219e-06 -1.48736e-06 0)
(6.87277e-06 -1.41756e-06 0)
(7.16636e-06 -1.34982e-06 0)
(7.45355e-06 -1.28277e-06 0)
(7.73486e-06 -1.21509e-06 0)
(8.01082e-06 -1.14549e-06 0)
(8.28187e-06 -1.0727e-06 0)
(8.54845e-06 -9.95443e-07 0)
(8.81097e-06 -9.12332e-07 0)
(9.06991e-06 -8.21925e-07 0)
(9.32557e-06 -7.22679e-07 0)
(9.57884e-06 -6.12583e-07 0)
(9.82955e-06 -4.90477e-07 0)
(4.071e-06 -2.36202e-06 0)
(4.42663e-06 -2.22832e-06 0)
(4.77581e-06 -2.10825e-06 0)
(5.11717e-06 -1.99831e-06 0)
(5.45066e-06 -1.89783e-06 0)
(5.77602e-06 -1.80531e-06 0)
(6.0935e-06 -1.71927e-06 0)
(6.40333e-06 -1.63826e-06 0)
(6.70592e-06 -1.56086e-06 0)
(7.0017e-06 -1.48571e-06 0)
(7.29114e-06 -1.41149e-06 0)
(7.5747e-06 -1.33695e-06 0)
(7.85285e-06 -1.26081e-06 0)
(8.12603e-06 -1.18184e-06 0)
(8.39465e-06 -1.0988e-06 0)
(8.65918e-06 -1.01034e-06 0)
(8.92011e-06 -9.15121e-07 0)
(9.17784e-06 -8.11678e-07 0)
(9.43321e-06 -6.9817e-07 0)
(9.68641e-06 -5.73571e-07 0)
(3.92795e-06 -2.54559e-06 0)
(4.27696e-06 -2.41144e-06 0)
(4.62135e-06 -2.2886e-06 0)
(4.95919e-06 -2.17438e-06 0)
(5.29045e-06 -2.06847e-06 0)
(5.61457e-06 -1.96975e-06 0)
(5.93163e-06 -1.87704e-06 0)
(6.24165e-06 -1.78913e-06 0)
(6.54491e-06 -1.70477e-06 0)
(6.8417e-06 -1.62272e-06 0)
(7.13238e-06 -1.54179e-06 0)
(7.41732e-06 -1.46076e-06 0)
(7.69694e-06 -1.37843e-06 0)
(7.97164e-06 -1.29362e-06 0)
(8.24183e-06 -1.20515e-06 0)
(8.50798e-06 -1.11175e-06 0)
(8.77058e-06 -1.01216e-06 0)
(9.03012e-06 -9.05041e-07 0)
(9.2874e-06 -7.88748e-07 0)
(9.54288e-06 -6.62418e-07 0)
(3.8006e-06 -2.72124e-06 0)
(4.14223e-06 -2.58749e-06 0)
(4.48074e-06 -2.46291e-06 0)
(4.81379e-06 -2.34547e-06 0)
(5.14148e-06 -2.23517e-06 0)
(5.46299e-06 -2.13123e-06 0)
(5.7783e-06 -2.03274e-06 0)
(6.08728e-06 -1.93871e-06 0)
(6.39008e-06 -1.84807e-06 0)
(6.68684e-06 -1.75974e-06 0)
(6.97786e-06 -1.67262e-06 0)
(7.2634e-06 -1.58559e-06 0)
(7.54382e-06 -1.49751e-06 0)
(7.81949e-06 -1.40731e-06 0)
(8.09078e-06 -1.31384e-06 0)
(8.35818e-06 -1.21596e-06 0)
(8.62215e-06 -1.1125e-06 0)
(8.88324e-06 -1.00225e-06 0)
(9.14222e-06 -8.83792e-07 0)
(9.39971e-06 -7.56397e-07 0)
(3.68642e-06 -2.8892e-06 0)
(4.02025e-06 -2.75645e-06 0)
(4.35212e-06 -2.63094e-06 0)
(4.67955e-06 -2.5112e-06 0)
(5.00269e-06 -2.39748e-06 0)
(5.32057e-06 -2.28923e-06 0)
(5.63311e-06 -2.18581e-06 0)
(5.94006e-06 -2.08646e-06 0)
(6.24146e-06 -1.99026e-06 0)
(6.53736e-06 -1.89628e-06 0)
(6.82793e-06 -1.80354e-06 0)
(7.11339e-06 -1.71102e-06 0)
(7.39402e-06 -1.61769e-06 0)
(7.67015e-06 -1.52255e-06 0)
(7.94214e-06 -1.42455e-06 0)
(8.21043e-06 -1.32264e-06 0)
(8.47548e-06 -1.21579e-06 0)
(8.73787e-06 -1.10291e-06 0)
(8.99833e-06 -9.82816e-07 0)
(9.25753e-06 -8.54888e-07 0)
(3.58301e-06 -3.04983e-06 0)
(3.90891e-06 -2.91849e-06 0)
(4.23372e-06 -2.79266e-06 0)
(4.55502e-06 -2.67136e-06 0)
(4.87292e-06 -2.555e-06 0)
(5.18644e-06 -2.44325e-06 0)
(5.49546e-06 -2.3357e-06 0)
(5.79961e-06 -2.23176e-06 0)
(6.09887e-06 -2.1307e-06 0)
(6.39319e-06 -2.03171e-06 0)
(6.68268e-06 -1.93395e-06 0)
(6.96747e-06 -1.8365e-06 0)
(7.24782e-06 -1.73843e-06 0)
(7.52399e-06 -1.63886e-06 0)
(7.7963e-06 -1.53679e-06 0)
(8.06518e-06 -1.43134e-06 0)
(8.33104e-06 -1.32156e-06 0)
(8.5945e-06 -1.20654e-06 0)
(8.8562e-06 -1.08528e-06 0)
(9.11688e-06 -9.57246e-07 0)
(3.48825e-06 -3.20361e-06 0)
(3.80624e-06 -3.07392e-06 0)
(4.12383e-06 -2.94823e-06 0)
(4.43869e-06 -2.82595e-06 0)
(4.75094e-06 -2.70761e-06 0)
(5.05963e-06 -2.59306e-06 0)
(5.36457e-06 -2.48209e-06 0)
(5.66537e-06 -2.37428e-06 0)
(5.96192e-06 -2.26901e-06 0)
(6.25412e-06 -2.16565e-06 0)
(6.54203e-06 -2.06347e-06 0)
(6.82571e-06 -1.96166e-06 0)
(7.10537e-06 -1.85938e-06 0)
(7.38122e-06 -1.75587e-06 0)
(7.65354e-06 -1.65023e-06 0)
(7.92274e-06 -1.54169e-06 0)
(8.1892e-06 -1.42945e-06 0)
(8.4535e-06 -1.3127e-06 0)
(8.71619e-06 -1.19065e-06 0)
(8.97814e-06 -1.06289e-06 0)
(3.40026e-06 -3.35105e-06 0)
(3.71047e-06 -3.22312e-06 0)
(4.02084e-06 -3.09789e-06 0)
(4.32915e-06 -2.97506e-06 0)
(4.63555e-06 -2.85528e-06 0)
(4.93912e-06 -2.73854e-06 0)
(5.23964e-06 -2.62479e-06 0)
(5.53671e-06 -2.51373e-06 0)
(5.83015e-06 -2.4049e-06 0)
(6.11984e-06 -2.29778e-06 0)
(6.40579e-06 -2.19177e-06 0)
(6.68801e-06 -2.08615e-06 0)
(6.96666e-06 -1.9802e-06 0)
(7.24189e-06 -1.87325e-06 0)
(7.51398e-06 -1.76453e-06 0)
(7.78326e-06 -1.65336e-06 0)
(8.0501e-06 -1.53906e-06 0)
(8.31503e-06 -1.42097e-06 0)
(8.57852e-06 -1.29845e-06 0)
(8.84149e-06 -1.17125e-06 0)
(3.31736e-06 -3.49265e-06 0)
(3.62003e-06 -3.3665e-06 0)
(3.92328e-06 -3.24192e-06 0)
(4.22507e-06 -3.1189e-06 0)
(4.52557e-06 -2.99812e-06 0)
(4.82389e-06 -2.87971e-06 0)
(5.1198e-06 -2.76373e-06 0)
(5.41289e-06 -2.65001e-06 0)
(5.70297e-06 -2.53821e-06 0)
(5.9899e-06 -2.42791e-06 0)
(6.27362e-06 -2.31863e-06 0)
(6.55412e-06 -2.20975e-06 0)
(6.83151e-06 -2.10064e-06 0)
(7.10593e-06 -1.99075e-06 0)
(7.37757e-06 -1.8794e-06 0)
(7.64676e-06 -1.76602e-06 0)
(7.91378e-06 -1.65005e-06 0)
(8.17914e-06 -1.53092e-06 0)
(8.44329e-06 -1.4082e-06 0)
(8.70704e-06 -1.28175e-06 0)
(3.23807e-06 -3.62889e-06 0)
(3.53348e-06 -3.50448e-06 0)
(3.8298e-06 -3.38068e-06 0)
(4.12521e-06 -3.25772e-06 0)
(4.41986e-06 -3.13631e-06 0)
(4.7129e-06 -3.01665e-06 0)
(5.00413e-06 -2.89893e-06 0)
(5.29315e-06 -2.78307e-06 0)
(5.57974e-06 -2.66884e-06 0)
(5.86375e-06 -2.55591e-06 0)
(6.14509e-06 -2.44388e-06 0)
(6.42372e-06 -2.33226e-06 0)
(6.69972e-06 -2.2205e-06 0)
(6.97316e-06 -2.10814e-06 0)
(7.24422e-06 -1.99459e-06 0)
(7.51317e-06 -1.87939e-06 0)
(7.78023e-06 -1.76208e-06 0)
(8.04587e-06 -1.6422e-06 0)
(8.31051e-06 -1.51951e-06 0)
(8.57485e-06 -1.39389e-06 0)
(3.16105e-06 -3.76024e-06 0)
(3.44951e-06 -3.63746e-06 0)
(3.73915e-06 -3.51453e-06 0)
(4.02838e-06 -3.39181e-06 0)
(4.31729e-06 -3.27005e-06 0)
(4.60515e-06 -3.14952e-06 0)
(4.89174e-06 -3.03049e-06 0)
(5.1767e-06 -2.91296e-06 0)
(5.45979e-06 -2.79679e-06 0)
(5.74086e-06 -2.68173e-06 0)
(6.01977e-06 -2.56747e-06 0)
(6.29646e-06 -2.4536e-06 0)
(6.57097e-06 -2.33966e-06 0)
(6.84335e-06 -2.22527e-06 0)
(7.11372e-06 -2.10993e-06 0)
(7.3823e-06 -1.99326e-06 0)
(7.64928e-06 -1.8749e-06 0)
(7.9151e-06 -1.75451e-06 0)
(8.18003e-06 -1.63199e-06 0)
(8.44482e-06 -1.50727e-06 0)
(3.08507e-06 -3.88708e-06 0)
(3.36688e-06 -3.76587e-06 0)
(3.65012e-06 -3.64381e-06 0)
(3.93338e-06 -3.52148e-06 0)
(4.21678e-06 -3.3996e-06 0)
(4.49963e-06 -3.27851e-06 0)
(4.78176e-06 -3.15856e-06 0)
(5.06276e-06 -3.03979e-06 0)
(5.34245e-06 -2.92214e-06 0)
(5.6206e-06 -2.80541e-06 0)
(5.89709e-06 -2.68939e-06 0)
(6.17184e-06 -2.57371e-06 0)
(6.44484e-06 -2.45802e-06 0)
(6.71612e-06 -2.342e-06 0)
(6.98574e-06 -2.22523e-06 0)
(7.2539e-06 -2.10739e-06 0)
(7.52071e-06 -1.98824e-06 0)
(7.78659e-06 -1.86754e-06 0)
(8.05172e-06 -1.74526e-06 0)
(8.31678e-06 -1.62146e-06 0)
(3.00881e-06 -4.00983e-06 0)
(3.28431e-06 -3.89004e-06 0)
(3.56146e-06 -3.76889e-06 0)
(3.83907e-06 -3.64705e-06 0)
(4.11725e-06 -3.52527e-06 0)
(4.39538e-06 -3.40392e-06 0)
(4.67326e-06 -3.28337e-06 0)
(4.95052e-06 -3.16374e-06 0)
(5.22695e-06 -3.045e-06 0)
(5.50234e-06 -2.92702e-06 0)
(5.77653e-06 -2.80965e-06 0)
(6.04942e-06 -2.6926e-06 0)
(6.32098e-06 -2.57556e-06 0)
(6.59118e-06 -2.45828e-06 0)
(6.86004e-06 -2.34039e-06 0)
(7.12772e-06 -2.22166e-06 0)
(7.39434e-06 -2.10194e-06 0)
(7.66018e-06 -1.98107e-06 0)
(7.92545e-06 -1.85909e-06 0)
(8.19065e-06 -1.73615e-06 0)
(2.93109e-06 -4.12877e-06 0)
(3.20058e-06 -4.01045e-06 0)
(3.47192e-06 -3.89009e-06 0)
(3.7443e-06 -3.76883e-06 0)
(4.01764e-06 -3.64735e-06 0)
(4.2914e-06 -3.52599e-06 0)
(4.56538e-06 -3.40515e-06 0)
(4.83921e-06 -3.28501e-06 0)
(5.11264e-06 -3.16555e-06 0)
(5.38547e-06 -3.0467e-06 0)
(5.65754e-06 -2.92838e-06 0)
(5.9287e-06 -2.81033e-06 0)
(6.1989e-06 -2.69228e-06 0)
(6.46806e-06 -2.57405e-06 0)
(6.73619e-06 -2.45532e-06 0)
(7.00343e-06 -2.33595e-06 0)
(7.26982e-06 -2.21584e-06 0)
(7.53557e-06 -2.09487e-06 0)
(7.80088e-06 -1.97322e-06 0)
(8.06617e-06 -1.85107e-06 0)
(2.85063e-06 -4.2444e-06 0)
(3.11426e-06 -4.1271e-06 0)
(3.3801e-06 -4.00781e-06 0)
(3.64789e-06 -3.88737e-06 0)
(3.91682e-06 -3.76632e-06 0)
(4.18672e-06 -3.64516e-06 0)
(4.45721e-06 -3.52429e-06 0)
(4.72798e-06 -3.40391e-06 0)
(4.99878e-06 -3.28404e-06 0)
(5.26938e-06 -3.16466e-06 0)
(5.53959e-06 -3.04572e-06 0)
(5.80922e-06 -2.92698e-06 0)
(6.07819e-06 -2.80823e-06 0)
(6.34643e-06 -2.68933e-06 0)
(6.61391e-06 -2.57003e-06 0)
(6.88074e-06 -2.45021e-06 0)
(7.14688e-06 -2.3298e-06 0)
(7.41255e-06 -2.2088e-06 0)
(7.6778e-06 -2.08748e-06 0)
(7.94312e-06 -1.96599e-06 0)
(2.76553e-06 -4.35658e-06 0)
(3.02417e-06 -4.24047e-06 0)
(3.2855e-06 -4.12246e-06 0)
(3.54886e-06 -4.00287e-06 0)
(3.81399e-06 -3.88246e-06 0)
(4.08048e-06 -3.76172e-06 0)
(4.348e-06 -3.64105e-06 0)
(4.61621e-06 -3.52071e-06 0)
(4.88482e-06 -3.40073e-06 0)
(5.15357e-06 -3.28112e-06 0)
(5.42222e-06 -3.16182e-06 0)
(5.69056e-06 -3.04268e-06 0)
(5.95851e-06 -2.9235e-06 0)
(6.22598e-06 -2.80416e-06 0)
(6.49292e-06 -2.68447e-06 0)
(6.75934e-06 -2.56436e-06 0)
(7.02522e-06 -2.44377e-06 0)
(7.29082e-06 -2.32276e-06 0)
(7.55608e-06 -2.20169e-06 0)
(7.82129e-06 -2.08077e-06 0)
(2.67466e-06 -4.46652e-06 0)
(2.92873e-06 -4.35181e-06 0)
(3.18597e-06 -4.2348e-06 0)
(3.44573e-06 -4.11615e-06 0)
(3.70775e-06 -3.9965e-06 0)
(3.97156e-06 -3.87635e-06 0)
(4.23682e-06 -3.75609e-06 0)
(4.50313e-06 -3.63598e-06 0)
(4.77012e-06 -3.51609e-06 0)
(5.03748e-06 -3.39645e-06 0)
(5.30497e-06 -3.27703e-06 0)
(5.57238e-06 -3.15767e-06 0)
(5.83958e-06 -3.03824e-06 0)
(6.10641e-06 -2.91866e-06 0)
(6.37284e-06 -2.79872e-06 0)
(6.63894e-06 -2.67836e-06 0)
(6.90465e-06 -2.55767e-06 0)
(7.1701e-06 -2.43668e-06 0)
(7.43534e-06 -2.31574e-06 0)
(7.7005e-06 -2.19523e-06 0)
(2.57686e-06 -4.57333e-06 0)
(2.82693e-06 -4.46019e-06 0)
(3.08077e-06 -4.34463e-06 0)
(3.33774e-06 -4.2272e-06 0)
(3.59748e-06 -4.10856e-06 0)
(3.85947e-06 -3.98921e-06 0)
(4.12327e-06 -3.86959e-06 0)
(4.38837e-06 -3.74995e-06 0)
(4.65438e-06 -3.63034e-06 0)
(4.92096e-06 -3.51081e-06 0)
(5.18779e-06 -3.39143e-06 0)
(5.45458e-06 -3.27206e-06 0)
(5.72122e-06 -3.15251e-06 0)
(5.9876e-06 -3.03276e-06 0)
(6.25361e-06 -2.91271e-06 0)
(6.51936e-06 -2.79224e-06 0)
(6.78489e-06 -2.67147e-06 0)
(7.05021e-06 -2.55044e-06 0)
(7.31546e-06 -2.42955e-06 0)
(7.58061e-06 -2.30922e-06 0)
(1.9129e-07 -3.95916e-06 0)
(5.76542e-07 -3.90075e-06 0)
(9.69807e-07 -3.78624e-06 0)
(1.37563e-06 -3.62025e-06 0)
(1.79767e-06 -3.40912e-06 0)
(2.23822e-06 -3.16077e-06 0)
(2.69817e-06 -2.88427e-06 0)
(3.17672e-06 -2.5891e-06 0)
(3.67215e-06 -2.28488e-06 0)
(4.18058e-06 -1.97922e-06 0)
(1.85868e-07 -4.02315e-06 0)
(5.59881e-07 -3.96978e-06 0)
(9.40557e-07 -3.86508e-06 0)
(1.33174e-06 -3.71297e-06 0)
(1.73654e-06 -3.51883e-06 0)
(2.1569e-06 -3.28941e-06 0)
(2.59364e-06 -3.03239e-06 0)
(3.04593e-06 -2.75601e-06 0)
(3.51159e-06 -2.46899e-06 0)
(3.9876e-06 -2.17768e-06 0)
(1.81071e-07 -4.08868e-06 0)
(5.4511e-07 -4.03989e-06 0)
(9.14589e-07 -3.94406e-06 0)
(1.29259e-06 -3.80462e-06 0)
(1.68174e-06 -3.62622e-06 0)
(2.08366e-06 -3.41469e-06 0)
(2.49918e-06 -3.17663e-06 0)
(2.92805e-06 -2.91897e-06 0)
(3.36866e-06 -2.64925e-06 0)
(3.81906e-06 -2.37161e-06 0)
(1.76803e-07 -4.15587e-06 0)
(5.31978e-07 -4.11095e-06 0)
(8.91727e-07 -4.02269e-06 0)
(1.2585e-06 -3.89408e-06 0)
(1.63452e-06 -3.72921e-06 0)
(2.02108e-06 -3.53316e-06 0)
(2.41881e-06 -3.31183e-06 0)
(2.82746e-06 -3.07126e-06 0)
(3.24566e-06 -2.81851e-06 0)
(3.67176e-06 -2.55677e-06 0)
(1.72886e-07 -4.22467e-06 0)
(5.1989e-07 -4.18323e-06 0)
(8.70729e-07 -4.10175e-06 0)
(1.22734e-06 -3.98287e-06 0)
(1.59161e-06 -3.83026e-06 0)
(1.9646e-06 -3.64841e-06 0)
(2.34686e-06 -3.44256e-06 0)
(2.73821e-06 -3.21782e-06 0)
(3.13763e-06 -2.98067e-06 0)
(3.54289e-06 -2.73393e-06 0)
(1.69224e-07 -4.29499e-06 0)
(5.08702e-07 -4.25657e-06 0)
(8.5139e-07 -4.18097e-06 0)
(1.19891e-06 -4.07061e-06 0)
(1.5528e-06 -3.92875e-06 0)
(1.91393e-06 -3.75945e-06 0)
(2.2827e-06 -3.56746e-06 0)
(2.65883e-06 -3.3573e-06 0)
(3.04182e-06 -3.13484e-06 0)
(3.42891e-06 -2.90292e-06 0)
(1.65715e-07 -4.36674e-06 0)
(4.98049e-07 -4.33101e-06 0)
(8.33075e-07 -4.26068e-06 0)
(1.17219e-06 -4.15793e-06 0)
(1.51664e-06 -4.02572e-06 0)
(1.86717e-06 -3.86773e-06 0)
(2.22412e-06 -3.68827e-06 0)
(2.58701e-06 -3.4914e-06 0)
(2.95579e-06 -3.28233e-06 0)
(3.32725e-06 -3.06421e-06 0)
(1.62362e-07 -4.43976e-06 0)
(4.87809e-07 -4.40641e-06 0)
(8.15567e-07 -4.34073e-06 0)
(1.14685e-06 -4.24472e-06 0)
(1.48265e-06 -4.1211e-06 0)
(1.82357e-06 -3.97322e-06 0)
(2.16994e-06 -3.80505e-06 0)
(2.52114e-06 -3.62031e-06 0)
(2.87745e-06 -3.42359e-06 0)
(3.23543e-06 -3.21828e-06 0)
(1.59078e-07 -4.51392e-06 0)
(4.77784e-07 -4.48269e-06 0)
(7.9853e-07 -4.42118e-06 0)
(1.12234e-06 -4.33122e-06 0)
(1.45006e-06 -4.21532e-06 0)
(1.78218e-06 -4.07654e-06 0)
(2.11899e-06 -3.91855e-06 0)
(2.4598e-06 -3.74481e-06 0)
(2.80507e-06 -3.55935e-06 0)
(3.15135e-06 -3.36576e-06 0)
(1.55786e-07 -4.58905e-06 0)
(4.67853e-07 -4.55972e-06 0)
(7.81746e-07 -4.50194e-06 0)
(1.09834e-06 -4.41739e-06 0)
(1.41838e-06 -4.30844e-06 0)
(1.7423e-06 -4.17785e-06 0)
(2.07034e-06 -4.02904e-06 0)
(2.40177e-06 -3.86529e-06 0)
(2.73715e-06 -3.69012e-06 0)
(3.07316e-06 -3.50721e-06 0)
(1.52459e-07 -4.66497e-06 0)
(4.57905e-07 -4.63737e-06 0)
(7.64975e-07 -4.58295e-06 0)
(1.07451e-06 -4.50329e-06 0)
(1.38714e-06 -4.40059e-06 0)
(1.70328e-06 -4.27742e-06 0)
(2.02315e-06 -4.13692e-06 0)
(2.346e-06 -3.98221e-06 0)
(2.6724e-06 -3.81642e-06 0)
(2.99929e-06 -3.64321e-06 0)
(1.49095e-07 -4.74149e-06 0)
(4.47834e-07 -4.71545e-06 0)
(7.4802e-07 -4.66408e-06 0)
(1.05053e-06 -4.58885e-06 0)
(1.35592e-06 -4.49181e-06 0)
(1.66456e-06 -4.37536e-06 0)
(1.97667e-06 -4.24241e-06 0)
(2.29154e-06 -4.09591e-06 0)
(2.60969e-06 -3.93866e-06 0)
(2.92838e-06 -3.77425e-06 0)
(1.45658e-07 -4.81842e-06 0)
(4.37491e-07 -4.7938e-06 0)
(7.30657e-07 -4.74521e-06 0)
(1.02608e-06 -4.67401e-06 0)
(1.32427e-06 -4.58213e-06 0)
(1.62555e-06 -4.4718e-06 0)
(1.93019e-06 -4.34572e-06 0)
(2.23751e-06 -4.20668e-06 0)
(2.54798e-06 -4.05722e-06 0)
(2.85918e-06 -3.9008e-06 0)
(1.42079e-07 -4.89551e-06 0)
(4.26717e-07 -4.87218e-06 0)
(7.12657e-07 -4.82614e-06 0)
(1.00083e-06 -4.75864e-06 0)
(1.29175e-06 -4.67147e-06 0)
(1.58571e-06 -4.56675e-06 0)
(1.88302e-06 -4.44695e-06 0)
(2.18307e-06 -4.31471e-06 0)
(2.48627e-06 -4.17239e-06 0)
(2.79052e-06 -4.02325e-06 0)
(1.38298e-07 -4.97256e-06 0)
(4.1537e-07 -4.95042e-06 0)
(6.93783e-07 -4.90673e-06 0)
(9.74437e-07 -4.84264e-06 0)
(1.25789e-06 -4.75983e-06 0)
(1.54445e-06 -4.66027e-06 0)
(1.83443e-06 -4.54624e-06 0)
(2.12736e-06 -4.42026e-06 0)
(2.42353e-06 -4.28449e-06 0)
(2.72117e-06 -4.14198e-06 0)
(1.34273e-07 -5.04914e-06 0)
(4.0333e-07 -5.02811e-06 0)
(6.73802e-07 -4.98662e-06 0)
(9.46558e-07 -4.92571e-06 0)
(1.22223e-06 -4.84695e-06 0)
(1.50116e-06 -4.75216e-06 0)
(1.78371e-06 -4.6435e-06 0)
(2.06951e-06 -4.52331e-06 0)
(2.35875e-06 -4.3936e-06 0)
(2.64999e-06 -4.25717e-06 0)
(1.29963e-07 -5.12515e-06 0)
(3.90437e-07 -5.10517e-06 0)
(6.5241e-07 -5.06575e-06 0)
(9.16758e-07 -5.00783e-06 0)
(1.18421e-06 -4.93287e-06 0)
(1.45516e-06 -4.84258e-06 0)
(1.73e-06 -4.73895e-06 0)
(2.00849e-06 -4.62418e-06 0)
(2.29078e-06 -4.5001e-06 0)
(2.57563e-06 -4.36934e-06 0)
(1.2531e-07 -5.19973e-06 0)
(3.76497e-07 -5.18076e-06 0)
(6.29279e-07 -5.14331e-06 0)
(8.84581e-07 -5.08825e-06 0)
(1.14322e-06 -5.01692e-06 0)
(1.40569e-06 -4.9309e-06 0)
(1.67243e-06 -4.83206e-06 0)
(1.94325e-06 -4.72243e-06 0)
(2.21836e-06 -4.60369e-06 0)
(2.49676e-06 -4.47829e-06 0)
(1.20207e-07 -5.27329e-06 0)
(3.61203e-07 -5.25529e-06 0)
(6.03915e-07 -5.21974e-06 0)
(8.49358e-07 -5.16745e-06 0)
(1.09843e-06 -5.09963e-06 0)
(1.35173e-06 -5.01776e-06 0)
(1.60974e-06 -4.92353e-06 0)
(1.87246e-06 -4.81883e-06 0)
(2.14001e-06 -4.70524e-06 0)
(2.41177e-06 -4.58494e-06 0)
(1.14605e-07 -5.34354e-06 0)
(3.44429e-07 -5.3265e-06 0)
(5.76105e-07 -5.29286e-06 0)
(8.10756e-07 -5.24332e-06 0)
(1.04939e-06 -5.179e-06 0)
(1.29271e-06 -5.10127e-06 0)
(1.54129e-06 -5.01165e-06 0)
(1.7953e-06 -4.91189e-06 0)
(2.05488e-06 -4.80346e-06 0)
(2.31968e-06 -4.68831e-06 0)
)


// ************************************************************************* //
