/*--------------------------------*- C++ -*----------------------------------*\
| =========                 |                                                 |
| \\      /  F ield         | foam-extend: Open Source CFD                    |
|  \\    /   O peration     | Version:     4.1                                |
|   \\  /    A nd           | Web:         http://www.foam-extend.org         |
|    \\/     M anipulation  |                                                 |
\*---------------------------------------------------------------------------*/
FoamFile
{
    version     2.0;
    format      ascii;
    class       vectorField;
    location    "9";
    object      solidsCellD_iteration9;
}
// * * * * * * * * * * * * * * * * * * * * * * * * * * * * * * * * * * * * * //


1000
(
(4.67981e-06 -1.99101e-06 0)
(4.41474e-06 -1.85269e-06 0)
(4.24527e-06 -1.7649e-06 0)
(4.14783e-06 -1.72379e-06 0)
(4.1e-06 -1.70938e-06 0)
(4.08842e-06 -1.71559e-06 0)
(4.10348e-06 -1.73523e-06 0)
(4.13858e-06 -1.76492e-06 0)
(4.1887e-06 -1.80134e-06 0)
(4.25022e-06 -1.8426e-06 0)
(4.23131e-06 -2.17476e-06 0)
(3.94901e-06 -2.07839e-06 0)
(3.76868e-06 -2.01713e-06 0)
(3.66326e-06 -1.99409e-06 0)
(3.6092e-06 -1.99166e-06 0)
(3.59198e-06 -2.00635e-06 0)
(3.60164e-06 -2.03206e-06 0)
(3.63111e-06 -2.06625e-06 0)
(3.67519e-06 -2.1064e-06 0)
(3.72963e-06 -2.14993e-06 0)
(3.76533e-06 -2.34889e-06 0)
(3.47693e-06 -2.29944e-06 0)
(3.29282e-06 -2.26786e-06 0)
(3.18392e-06 -2.26474e-06 0)
(3.1265e-06 -2.27535e-06 0)
(3.1054e-06 -2.29904e-06 0)
(3.11066e-06 -2.33104e-06 0)
(3.13516e-06 -2.36969e-06 0)
(3.17362e-06 -2.41337e-06 0)
(3.22195e-06 -2.45928e-06 0)
(3.28538e-06 -2.51036e-06 0)
(3.00296e-06 -2.51012e-06 0)
(2.82274e-06 -2.50969e-06 0)
(2.71517e-06 -2.52734e-06 0)
(2.65735e-06 -2.55148e-06 0)
(2.63423e-06 -2.58443e-06 0)
(2.63613e-06 -2.62273e-06 0)
(2.65616e-06 -2.66582e-06 0)
(2.68938e-06 -2.71288e-06 0)
(2.7316e-06 -2.76135e-06 0)
(2.79474e-06 -2.65597e-06 0)
(2.53031e-06 -2.7045e-06 0)
(2.36162e-06 -2.73497e-06 0)
(2.26035e-06 -2.77314e-06 0)
(2.20517e-06 -2.81057e-06 0)
(2.18179e-06 -2.85258e-06 0)
(2.18135e-06 -2.89699e-06 0)
(2.19741e-06 -2.94441e-06 0)
(2.22554e-06 -2.99468e-06 0)
(2.26158e-06 -3.04581e-06 0)
(2.29581e-06 -2.78277e-06 0)
(2.06107e-06 -2.87692e-06 0)
(1.9114e-06 -2.93631e-06 0)
(1.82107e-06 -2.99368e-06 0)
(1.77134e-06 -3.04352e-06 0)
(1.74943e-06 -3.09394e-06 0)
(1.74767e-06 -3.14399e-06 0)
(1.7602e-06 -3.19543e-06 0)
(1.78328e-06 -3.24864e-06 0)
(1.81296e-06 -3.30238e-06 0)
(1.79102e-06 -2.88788e-06 0)
(1.59636e-06 -3.02202e-06 0)
(1.47228e-06 -3.10678e-06 0)
(1.39712e-06 -3.18096e-06 0)
(1.35545e-06 -3.24164e-06 0)
(1.33664e-06 -3.29941e-06 0)
(1.33437e-06 -3.35436e-06 0)
(1.34372e-06 -3.40935e-06 0)
(1.3617e-06 -3.46512e-06 0)
(1.38488e-06 -3.52122e-06 0)
(1.28209e-06 -2.96897e-06 0)
(1.13626e-06 -3.13523e-06 0)
(1.04336e-06 -3.24034e-06 0)
(9.86989e-07 -3.32796e-06 0)
(9.5559e-07 -3.39737e-06 0)
(9.41168e-07 -3.46105e-06 0)
(9.39022e-07 -3.51997e-06 0)
(9.4545e-07 -3.57782e-06 0)
(9.58303e-07 -3.63564e-06 0)
(9.74902e-07 -3.69371e-06 0)
(7.70419e-07 -3.0241e-06 0)
(6.80145e-07 -3.2128e-06 0)
(6.22661e-07 -3.33213e-06 0)
(5.87675e-07 -3.42922e-06 0)
(5.68091e-07 -3.50473e-06 0)
(5.58993e-07 -3.57251e-06 0)
(5.57506e-07 -3.63421e-06 0)
(5.61286e-07 -3.69411e-06 0)
(5.68989e-07 -3.7534e-06 0)
(5.78948e-07 -3.81289e-06 0)
(2.57298e-07 -3.05187e-06 0)
(2.26714e-07 -3.25218e-06 0)
(2.07161e-07 -3.37885e-06 0)
(1.95264e-07 -3.48079e-06 0)
(1.88628e-07 -3.55945e-06 0)
(1.85492e-07 -3.62939e-06 0)
(1.84892e-07 -3.6925e-06 0)
(1.8611e-07 -3.75343e-06 0)
(1.88684e-07 -3.81348e-06 0)
(1.91993e-07 -3.87373e-06 0)
(7.30582e-06 -9.08926e-08 0)
(7.37211e-06 -6.5514e-08 0)
(7.41204e-06 -4.94155e-08 0)
(7.45505e-06 -3.99347e-08 0)
(7.50184e-06 -3.46509e-08 0)
(7.55926e-06 -3.22115e-08 0)
(7.62723e-06 -3.16821e-08 0)
(7.70655e-06 -3.23547e-08 0)
(7.79702e-06 -3.39754e-08 0)
(7.89744e-06 -3.5946e-08 0)
(7.25164e-06 -2.72679e-07 0)
(7.30691e-06 -1.98025e-07 0)
(7.33995e-06 -1.50732e-07 0)
(7.37832e-06 -1.23025e-07 0)
(7.42205e-06 -1.07702e-07 0)
(7.47727e-06 -1.00596e-07 0)
(7.5437e-06 -9.91507e-08 0)
(7.62176e-06 -1.01409e-07 0)
(7.71113e-06 -1.06314e-07 0)
(7.8104e-06 -1.1215e-07 0)
(7.14343e-06 -4.55983e-07 0)
(7.17769e-06 -3.36154e-07 0)
(7.19744e-06 -2.6031e-07 0)
(7.22701e-06 -2.15872e-07 0)
(7.26492e-06 -1.91443e-07 0)
(7.31605e-06 -1.80395e-07 0)
(7.37942e-06 -1.78388e-07 0)
(7.45503e-06 -1.82309e-07 0)
(7.54232e-06 -1.90456e-07 0)
(7.63936e-06 -2.00214e-07 0)
(6.98313e-06 -6.41617e-07 0)
(6.98752e-06 -4.83069e-07 0)
(6.98832e-06 -3.82818e-07 0)
(7.00536e-06 -3.24341e-07 0)
(7.03495e-06 -2.92342e-07 0)
(7.08022e-06 -2.78173e-07 0)
(7.1393e-06 -2.76004e-07 0)
(7.21146e-06 -2.81822e-07 0)
(7.2958e-06 -2.93241e-07 0)
(7.38973e-06 -3.0696e-07 0)
(6.77323e-06 -8.30055e-07 0)
(6.74071e-06 -6.41437e-07 0)
(6.71808e-06 -5.22182e-07 0)
(6.71959e-06 -4.53102e-07 0)
(6.73889e-06 -4.15622e-07 0)
(6.77688e-06 -3.99581e-07 0)
(6.83061e-06 -3.97928e-07 0)
(6.89843e-06 -4.0596e-07 0)
(6.9791e-06 -4.2065e-07 0)
(7.06927e-06 -4.38304e-07 0)
(6.5169e-06 -1.0214e-06 0)
(6.4426e-06 -8.1299e-07 0)
(6.39353e-06 -6.81168e-07 0)
(6.37747e-06 -6.05538e-07 0)
(6.38509e-06 -5.65078e-07 0)
(6.41477e-06 -5.4866e-07 0)
(6.46241e-06 -5.483e-07 0)
(6.52527e-06 -5.58864e-07 0)
(6.60169e-06 -5.76827e-07 0)
(6.68763e-06 -5.98391e-07 0)
(6.21796e-06 -1.21529e-06 0)
(6.09949e-06 -9.98439e-07 0)
(6.02249e-06 -8.61202e-07 0)
(5.98787e-06 -7.83524e-07 0)
(5.98311e-06 -7.42802e-07 0)
(6.00395e-06 -7.2764e-07 0)
(6.04503e-06 -7.29449e-07 0)
(6.10255e-06 -7.42919e-07 0)
(6.17431e-06 -7.64222e-07 0)
(6.25577e-06 -7.89637e-07 0)
(5.88039e-06 -1.41079e-06 0)
(5.71817e-06 -1.19731e-06 0)
(5.6135e-06 -1.0621e-06 0)
(5.56039e-06 -9.87052e-07 0)
(5.54326e-06 -9.48907e-07 0)
(5.55515e-06 -9.36713e-07 0)
(5.58945e-06 -9.41616e-07 0)
(5.64145e-06 -9.58458e-07 0)
(5.70825e-06 -9.83187e-07 0)
(5.78511e-06 -1.01246e-06 0)
(5.5086e-06 -1.60657e-06 0)
(5.3057e-06 -1.40796e-06 0)
(5.17536e-06 -1.28211e-06 0)
(5.10493e-06 -1.21431e-06 0)
(5.07612e-06 -1.18157e-06 0)
(5.07934e-06 -1.174e-06 0)
(5.1069e-06 -1.18297e-06 0)
(5.15331e-06 -1.20358e-06 0)
(5.21489e-06 -1.23202e-06 0)
(5.28716e-06 -1.26494e-06 0)
(5.10697e-06 -1.80075e-06 0)
(4.86906e-06 -1.62767e-06 0)
(4.71662e-06 -1.51793e-06 0)
(4.63109e-06 -1.46167e-06 0)
(4.59184e-06 -1.43697e-06 0)
(4.58714e-06 -1.43562e-06 0)
(4.60835e-06 -1.44954e-06 0)
(4.64923e-06 -1.47458e-06 0)
(4.70564e-06 -1.50692e-06 0)
(4.773e-06 -1.54486e-06 0)
(8.00806e-06 -3.78791e-08 0)
(8.12866e-06 -3.82709e-08 0)
(8.25693e-06 -3.8745e-08 0)
(8.39243e-06 -3.90723e-08 0)
(8.5343e-06 -3.92152e-08 0)
(8.68202e-06 -3.91592e-08 0)
(8.8349e-06 -3.8847e-08 0)
(8.99236e-06 -3.83049e-08 0)
(9.1539e-06 -3.75317e-08 0)
(9.31904e-06 -3.64855e-08 0)
(9.48726e-06 -3.51259e-08 0)
(9.65805e-06 -3.34365e-08 0)
(9.83093e-06 -3.13993e-08 0)
(1.00054e-05 -2.89934e-08 0)
(1.0181e-05 -2.61786e-08 0)
(1.0357e-05 -2.2894e-08 0)
(1.05332e-05 -1.90618e-08 0)
(1.07082e-05 -1.46078e-08 0)
(1.08825e-05 -9.42732e-09 0)
(1.10531e-05 -3.48458e-09 0)
(7.92489e-06 -1.17527e-07 0)
(8.05246e-06 -1.18179e-07 0)
(8.18696e-06 -1.19119e-07 0)
(8.32788e-06 -1.19698e-07 0)
(8.4746e-06 -1.19747e-07 0)
(8.62656e-06 -1.19283e-07 0)
(8.78328e-06 -1.18177e-07 0)
(8.94422e-06 -1.16428e-07 0)
(9.10895e-06 -1.13938e-07 0)
(9.27697e-06 -1.10618e-07 0)
(9.44783e-06 -1.06413e-07 0)
(9.62108e-06 -1.01288e-07 0)
(9.79629e-06 -9.51599e-08 0)
(9.97294e-06 -8.79179e-08 0)
(1.01506e-05 -7.94225e-08 0)
(1.03286e-05 -6.95173e-08 0)
(1.05066e-05 -5.79969e-08 0)
(1.06835e-05 -4.46508e-08 0)
(1.08596e-05 -2.91531e-08 0)
(1.10319e-05 -1.13708e-08 0)
(7.7614e-06 -2.07884e-07 0)
(7.90265e-06 -2.07254e-07 0)
(8.04939e-06 -2.07238e-07 0)
(8.20085e-06 -2.06998e-07 0)
(8.35701e-06 -2.06102e-07 0)
(8.51739e-06 -2.0457e-07 0)
(8.68169e-06 -2.02098e-07 0)
(8.84943e-06 -1.98642e-07 0)
(9.02033e-06 -1.94027e-07 0)
(9.194e-06 -1.88141e-07 0)
(9.37008e-06 -1.80895e-07 0)
(9.54817e-06 -1.72191e-07 0)
(9.7279e-06 -1.61847e-07 0)
(9.90878e-06 -1.49663e-07 0)
(1.00904e-05 -1.35412e-07 0)
(1.02723e-05 -1.18846e-07 0)
(1.0454e-05 -9.96247e-08 0)
(1.06345e-05 -7.73997e-08 0)
(1.08142e-05 -5.16232e-08 0)
(1.099e-05 -2.205e-08 0)
(7.52253e-06 -3.15041e-07 0)
(7.68336e-06 -3.1069e-07 0)
(7.84776e-06 -3.07497e-07 0)
(8.0146e-06 -3.04755e-07 0)
(8.18457e-06 -3.01514e-07 0)
(8.35716e-06 -2.97799e-07 0)
(8.53249e-06 -2.93043e-07 0)
(8.71018e-06 -2.8716e-07 0)
(8.8902e-06 -2.79858e-07 0)
(9.07221e-06 -2.70979e-07 0)
(9.25598e-06 -2.60345e-07 0)
(9.44118e-06 -2.47768e-07 0)
(9.62753e-06 -2.32977e-07 0)
(9.81464e-06 -2.15699e-07 0)
(1.00022e-05 -1.95626e-07 0)
(1.01897e-05 -1.72383e-07 0)
(1.03769e-05 -1.45485e-07 0)
(1.05627e-05 -1.14429e-07 0)
(1.07474e-05 -7.84281e-08 0)
(1.09285e-05 -3.71517e-08 0)
(7.21545e-06 -4.44379e-07 0)
(7.4009e-06 -4.33193e-07 0)
(7.58774e-06 -4.24007e-07 0)
(7.77404e-06 -4.16604e-07 0)
(7.96162e-06 -4.09181e-07 0)
(8.14986e-06 -4.01793e-07 0)
(8.33938e-06 -3.93543e-07 0)
(8.52992e-06 -3.84274e-07 0)
(8.72164e-06 -3.73518e-07 0)
(8.91436e-06 -3.61015e-07 0)
(9.10802e-06 -3.46494e-07 0)
(9.30242e-06 -3.29664e-07 0)
(9.49737e-06 -3.10155e-07 0)
(9.69257e-06 -2.87598e-07 0)
(9.88781e-06 -2.61578e-07 0)
(1.00826e-05 -2.31592e-07 0)
(1.02768e-05 -1.97007e-07 0)
(1.04694e-05 -1.57171e-07 0)
(1.06608e-05 -1.11044e-07 0)
(1.08486e-05 -5.82031e-08 0)
(6.8489e-06 -5.99769e-07 0)
(7.06266e-06 -5.78149e-07 0)
(7.27573e-06 -5.59617e-07 0)
(7.48499e-06 -5.44902e-07 0)
(7.6935e-06 -5.31112e-07 0)
(7.90042e-06 -5.18269e-07 0)
(8.10685e-06 -5.05084e-07 0)
(8.31275e-06 -4.91228e-07 0)
(8.51852e-06 -4.76079e-07 0)
(8.72414e-06 -4.59233e-07 0)
(8.92973e-06 -4.40279e-07 0)
(9.13521e-06 -4.18789e-07 0)
(9.3405e-06 -3.94269e-07 0)
(9.54541e-06 -3.66239e-07 0)
(9.74983e-06 -3.34152e-07 0)
(9.95336e-06 -2.97385e-07 0)
(1.0156e-05 -2.55147e-07 0)
(1.03568e-05 -2.0664e-07 0)
(1.05563e-05 -1.50566e-07 0)
(1.07521e-05 -8.63557e-08 0)
(6.4331e-06 -7.83641e-07 0)
(6.67765e-06 -7.47891e-07 0)
(6.91969e-06 -7.16665e-07 0)
(7.15449e-06 -6.91808e-07 0)
(7.38634e-06 -6.69354e-07 0)
(7.61432e-06 -6.49077e-07 0)
(7.8399e-06 -6.29408e-07 0)
(8.06326e-06 -6.09688e-07 0)
(8.28504e-06 -5.89123e-07 0)
(8.50543e-06 -5.67106e-07 0)
(8.72467e-06 -5.43051e-07 0)
(8.94283e-06 -5.16366e-07 0)
(9.15997e-06 -4.86428e-07 0)
(9.37601e-06 -4.52639e-07 0)
(9.59097e-06 -4.14314e-07 0)
(9.80455e-06 -3.70701e-07 0)
(1.00169e-05 -3.20842e-07 0)
(1.0227e-05 -2.63767e-07 0)
(1.04358e-05 -1.97933e-07 0)
(1.06407e-05 -1.2261e-07 0)
(5.97837e-06 -9.96495e-07 0)
(6.25468e-06 -9.42597e-07 0)
(6.52712e-06 -8.9536e-07 0)
(6.7893e-06 -8.57203e-07 0)
(7.04633e-06 -8.23648e-07 0)
(7.29727e-06 -7.9382e-07 0)
(7.5439e-06 -7.65984e-07 0)
(7.78655e-06 -7.39051e-07 0)
(8.02604e-06 -7.12011e-07 0)
(8.26275e-06 -6.83997e-07 0)
(8.49708e-06 -6.54213e-07 0)
(8.72925e-06 -6.21882e-07 0)
(8.95948e-06 -5.86233e-07 0)
(9.18785e-06 -5.46527e-07 0)
(9.41448e-06 -5.01925e-07 0)
(9.6392e-06 -4.51524e-07 0)
(9.86219e-06 -3.94183e-07 0)
(1.00827e-05 -3.28757e-07 0)
(1.03016e-05 -2.53449e-07 0)
(1.05168e-05 -1.67369e-07 0)
(5.49578e-06 -1.23793e-06 0)
(5.804e-06 -1.16247e-06 0)
(6.1069e-06 -1.09707e-06 0)
(6.39743e-06 -1.04291e-06 0)
(6.68047e-06 -9.96133e-07 0)
(6.95552e-06 -9.54842e-07 0)
(7.22428e-06 -9.17181e-07 0)
(7.48739e-06 -8.81612e-07 0)
(7.74574e-06 -8.46878e-07 0)
(7.99991e-06 -8.11838e-07 0)
(8.25044e-06 -7.75477e-07 0)
(8.49772e-06 -7.36833e-07 0)
(8.74209e-06 -6.94976e-07 0)
(8.98379e-06 -6.49001e-07 0)
(9.22303e-06 -5.979e-07 0)
(9.45978e-06 -5.40603e-07 0)
(9.69428e-06 -4.75785e-07 0)
(9.92604e-06 -4.02124e-07 0)
(1.01559e-05 -3.17608e-07 0)
(1.03821e-05 -2.212e-07 0)
(4.99444e-06 -1.5037e-06 0)
(5.33468e-06 -1.4017e-06 0)
(5.66679e-06 -1.31594e-06 0)
(5.98639e-06 -1.24319e-06 0)
(6.29603e-06 -1.181e-06 0)
(6.59622e-06 -1.12648e-06 0)
(6.88813e-06 -1.07756e-06 0)
(7.1727e-06 -1.03229e-06 0)
(7.45085e-06 -9.89082e-07 0)
(7.72334e-06 -9.46482e-07 0)
(7.99087e-06 -9.0321e-07 0)
(8.25396e-06 -8.58082e-07 0)
(8.51313e-06 -8.0997e-07 0)
(8.76874e-06 -7.57782e-07 0)
(9.0211e-06 -7.00332e-07 0)
(9.27033e-06 -6.36383e-07 0)
(9.5168e-06 -5.64435e-07 0)
(9.76018e-06 -4.82981e-07 0)
(1.00014e-05 -3.89807e-07 0)
(1.02392e-05 -2.83681e-07 0)
(4.62284e-06 -1.75801e-06 0)
(4.98429e-06 -1.63455e-06 0)
(5.33373e-06 -1.53363e-06 0)
(5.67108e-06 -1.44618e-06 0)
(5.99734e-06 -1.37051e-06 0)
(6.3134e-06 -1.30366e-06 0)
(6.62029e-06 -1.24348e-06 0)
(6.91893e-06 -1.18798e-06 0)
(7.21024e-06 -1.13542e-06 0)
(7.49497e-06 -1.08422e-06 0)
(7.77384e-06 -1.03298e-06 0)
(8.04746e-06 -9.80378e-07 0)
(8.31638e-06 -9.25165e-07 0)
(8.58105e-06 -8.66122e-07 0)
(8.84184e-06 -8.01956e-07 0)
(9.09901e-06 -7.31322e-07 0)
(9.35299e-06 -6.52659e-07 0)
(9.60372e-06 -5.64361e-07 0)
(9.85214e-06 -4.64183e-07 0)
(1.00973e-05 -3.50811e-07 0)
(4.41002e-06 -1.96435e-06 0)
(4.77387e-06 -1.83611e-06 0)
(5.12621e-06 -1.72667e-06 0)
(5.46806e-06 -1.63018e-06 0)
(5.79953e-06 -1.54506e-06 0)
(6.1212e-06 -1.46883e-06 0)
(6.43382e-06 -1.39948e-06 0)
(6.73811e-06 -1.33515e-06 0)
(7.0348e-06 -1.27413e-06 0)
(7.32459e-06 -1.21488e-06 0)
(7.60813e-06 -1.15599e-06 0)
(7.88601e-06 -1.09613e-06 0)
(8.15879e-06 -1.03402e-06 0)
(8.42692e-06 -9.68399e-07 0)
(8.69081e-06 -8.97977e-07 0)
(8.95081e-06 -8.21385e-07 0)
(9.20738e-06 -7.37109e-07 0)
(9.46065e-06 -6.43566e-07 0)
(9.71154e-06 -5.3862e-07 0)
(9.95954e-06 -4.21005e-07 0)
(4.22769e-06 -2.16256e-06 0)
(4.58799e-06 -2.03136e-06 0)
(4.93975e-06 -1.91638e-06 0)
(5.28234e-06 -1.813e-06 0)
(5.61581e-06 -1.72007e-06 0)
(5.94021e-06 -1.63564e-06 0)
(6.25607e-06 -1.55795e-06 0)
(6.56383e-06 -1.48534e-06 0)
(6.86408e-06 -1.41624e-06 0)
(7.15736e-06 -1.34918e-06 0)
(7.44428e-06 -1.28279e-06 0)
(7.72536e-06 -1.21577e-06 0)
(8.00112e-06 -1.14684e-06 0)
(8.272e-06 -1.07475e-06 0)
(8.53843e-06 -9.98218e-07 0)
(8.80083e-06 -9.15886e-07 0)
(9.05967e-06 -8.26312e-07 0)
(9.31525e-06 -7.27983e-07 0)
(9.56844e-06 -6.18895e-07 0)
(9.81909e-06 -4.97871e-07 0)
(4.0667e-06 -2.35361e-06 0)
(4.42183e-06 -2.22092e-06 0)
(4.77055e-06 -2.10177e-06 0)
(5.11147e-06 -1.99274e-06 0)
(5.44455e-06 -1.89311e-06 0)
(5.7695e-06 -1.80142e-06 0)
(6.08661e-06 -1.71617e-06 0)
(6.3961e-06 -1.63593e-06 0)
(6.69837e-06 -1.55926e-06 0)
(6.99386e-06 -1.48482e-06 0)
(7.28305e-06 -1.41131e-06 0)
(7.56639e-06 -1.33746e-06 0)
(7.84435e-06 -1.26203e-06 0)
(8.11737e-06 -1.18379e-06 0)
(8.38584e-06 -1.10149e-06 0)
(8.65025e-06 -1.01384e-06 0)
(8.91108e-06 -9.1947e-07 0)
(9.16872e-06 -8.16957e-07 0)
(9.42401e-06 -7.04455e-07 0)
(9.67713e-06 -5.80922e-07 0)
(3.92465e-06 -2.53663e-06 0)
(4.27317e-06 -2.40354e-06 0)
(4.6171e-06 -2.28167e-06 0)
(4.9545e-06 -2.16838e-06 0)
(5.28535e-06 -2.06335e-06 0)
(5.60909e-06 -1.96549e-06 0)
(5.9258e-06 -1.87361e-06 0)
(6.2355e-06 -1.7865e-06 0)
(6.53847e-06 -1.7029e-06 0)
(6.83498e-06 -1.6216e-06 0)
(7.12543e-06 -1.5414e-06 0)
(7.41016e-06 -1.4611e-06 0)
(7.6896e-06 -1.3795e-06 0)
(7.96414e-06 -1.29545e-06 0)
(8.23419e-06 -1.20775e-06 0)
(8.50024e-06 -1.11518e-06 0)
(8.76273e-06 -1.01645e-06 0)
(9.02218e-06 -9.10267e-07 0)
(9.27937e-06 -7.94969e-07 0)
(9.53475e-06 -6.69691e-07 0)
(3.79821e-06 -2.71176e-06 0)
(4.13937e-06 -2.57911e-06 0)
(4.47743e-06 -2.45553e-06 0)
(4.81006e-06 -2.33905e-06 0)
(5.13736e-06 -2.22967e-06 0)
(5.45851e-06 -2.12662e-06 0)
(5.77349e-06 -2.02898e-06 0)
(6.08217e-06 -1.93578e-06 0)
(6.38468e-06 -1.84594e-06 0)
(6.68121e-06 -1.75839e-06 0)
(6.972e-06 -1.67204e-06 0)
(7.25734e-06 -1.58576e-06 0)
(7.5376e-06 -1.49845e-06 0)
(7.81312e-06 -1.40903e-06 0)
(8.08429e-06 -1.31636e-06 0)
(8.35159e-06 -1.21932e-06 0)
(8.61545e-06 -1.11673e-06 0)
(8.87645e-06 -1.00741e-06 0)
(9.13533e-06 -8.89923e-07 0)
(9.3927e-06 -7.63571e-07 0)
(3.68484e-06 -2.87924e-06 0)
(4.01823e-06 -2.74761e-06 0)
(4.34969e-06 -2.62313e-06 0)
(4.67672e-06 -2.50439e-06 0)
(4.99949e-06 -2.39161e-06 0)
(5.31703e-06 -2.28428e-06 0)
(5.62927e-06 -2.18176e-06 0)
(5.93594e-06 -2.08326e-06 0)
(6.23708e-06 -1.98789e-06 0)
(6.53275e-06 -1.89472e-06 0)
(6.82313e-06 -1.80277e-06 0)
(7.1084e-06 -1.71104e-06 0)
(7.38889e-06 -1.61851e-06 0)
(7.66489e-06 -1.52417e-06 0)
(7.93676e-06 -1.42697e-06 0)
(8.20495e-06 -1.32592e-06 0)
(8.4699e-06 -1.21993e-06 0)
(8.73219e-06 -1.10797e-06 0)
(8.99255e-06 -9.88841e-07 0)
(9.25164e-06 -8.61934e-07 0)
(3.58216e-06 -3.03944e-06 0)
(3.90767e-06 -2.90922e-06 0)
(4.23211e-06 -2.78445e-06 0)
(4.55303e-06 -2.66417e-06 0)
(4.8706e-06 -2.54879e-06 0)
(5.18382e-06 -2.43799e-06 0)
(5.49255e-06 -2.33136e-06 0)
(5.79645e-06 -2.22831e-06 0)
(6.09547e-06 -2.1281e-06 0)
(6.38958e-06 -2.02995e-06 0)
(6.67889e-06 -1.93301e-06 0)
(6.96352e-06 -1.83638e-06 0)
(7.24374e-06 -1.73913e-06 0)
(7.51979e-06 -1.64037e-06 0)
(7.79199e-06 -1.53913e-06 0)
(8.06078e-06 -1.43452e-06 0)
(8.32655e-06 -1.32561e-06 0)
(8.58991e-06 -1.21149e-06 0)
(8.8515e-06 -1.09118e-06 0)
(9.11206e-06 -9.64132e-07 0)
(3.48806e-06 -3.19284e-06 0)
(3.80571e-06 -3.06427e-06 0)
(4.12297e-06 -2.93966e-06 0)
(4.43751e-06 -2.81842e-06 0)
(4.74946e-06 -2.70109e-06 0)
(5.05787e-06 -2.58751e-06 0)
(5.36256e-06 -2.47749e-06 0)
(5.66313e-06 -2.37058e-06 0)
(5.95946e-06 -2.2662e-06 0)
(6.25148e-06 -2.16371e-06 0)
(6.53922e-06 -2.06238e-06 0)
(6.82276e-06 -1.9614e-06 0)
(7.1023e-06 -1.85996e-06 0)
(7.37804e-06 -1.75727e-06 0)
(7.65027e-06 -1.65247e-06 0)
(7.91938e-06 -1.54478e-06 0)
(8.18574e-06 -1.43339e-06 0)
(8.44995e-06 -1.31754e-06 0)
(8.71254e-06 -1.19642e-06 0)
(8.97436e-06 -1.0696e-06 0)
(3.40068e-06 -3.33994e-06 0)
(3.71061e-06 -3.21314e-06 0)
(4.0207e-06 -3.08898e-06 0)
(4.32873e-06 -2.96723e-06 0)
(4.63487e-06 -2.84847e-06 0)
(4.93819e-06 -2.73272e-06 0)
(5.23849e-06 -2.61994e-06 0)
(5.53534e-06 -2.50981e-06 0)
(5.82859e-06 -2.4019e-06 0)
(6.11812e-06 -2.29567e-06 0)
(6.40392e-06 -2.19053e-06 0)
(6.68601e-06 -2.08577e-06 0)
(6.96455e-06 -1.98067e-06 0)
(7.23969e-06 -1.87456e-06 0)
(7.51168e-06 -1.76667e-06 0)
(7.78089e-06 -1.65634e-06 0)
(8.04763e-06 -1.5429e-06 0)
(8.31248e-06 -1.42569e-06 0)
(8.57587e-06 -1.30406e-06 0)
(8.8387e-06 -1.17777e-06 0)
(3.31835e-06 -3.48125e-06 0)
(3.62079e-06 -3.35623e-06 0)
(3.92381e-06 -3.23274e-06 0)
(4.22537e-06 -3.11079e-06 0)
(4.52564e-06 -2.99105e-06 0)
(4.82375e-06 -2.87365e-06 0)
(5.11946e-06 -2.75865e-06 0)
(5.41237e-06 -2.64589e-06 0)
(5.70229e-06 -2.53503e-06 0)
(5.98907e-06 -2.42565e-06 0)
(6.27266e-06 -2.31725e-06 0)
(6.55304e-06 -2.20925e-06 0)
(6.83034e-06 -2.10101e-06 0)
(7.10467e-06 -1.99196e-06 0)
(7.37622e-06 -1.88145e-06 0)
(7.64534e-06 -1.76891e-06 0)
(7.91228e-06 -1.65378e-06 0)
(8.17756e-06 -1.53551e-06 0)
(8.4416e-06 -1.41365e-06 0)
(8.70521e-06 -1.28807e-06 0)
(3.2396e-06 -3.61725e-06 0)
(3.53483e-06 -3.49396e-06 0)
(3.83097e-06 -3.37125e-06 0)
(4.12619e-06 -3.24937e-06 0)
(4.42066e-06 -3.12901e-06 0)
(4.71352e-06 -3.01038e-06 0)
(5.00459e-06 -2.89366e-06 0)
(5.29345e-06 -2.77878e-06 0)
(5.5799e-06 -2.66551e-06 0)
(5.86379e-06 -2.55351e-06 0)
(6.14501e-06 -2.44239e-06 0)
(6.42354e-06 -2.33165e-06 0)
(6.69944e-06 -2.22077e-06 0)
(6.9728e-06 -2.10925e-06 0)
(7.24378e-06 -1.99655e-06 0)
(7.51266e-06 -1.88218e-06 0)
(7.77965e-06 -1.7657e-06 0)
(8.04521e-06 -1.64665e-06 0)
(8.30973e-06 -1.52479e-06 0)
(8.57394e-06 -1.4e-06 0)
(3.16311e-06 -3.74839e-06 0)
(3.45144e-06 -3.62673e-06 0)
(3.74094e-06 -3.50489e-06 0)
(4.03002e-06 -3.38325e-06 0)
(4.31879e-06 -3.26255e-06 0)
(4.60651e-06 -3.14306e-06 0)
(4.89298e-06 -3.02505e-06 0)
(5.1778e-06 -2.90851e-06 0)
(5.46078e-06 -2.79332e-06 0)
(5.74173e-06 -2.6792e-06 0)
(6.02053e-06 -2.56586e-06 0)
(6.29712e-06 -2.45289e-06 0)
(6.57155e-06 -2.33983e-06 0)
(6.84385e-06 -2.22629e-06 0)
(7.11415e-06 -2.1118e-06 0)
(7.38267e-06 -1.99596e-06 0)
(7.64957e-06 -1.8784e-06 0)
(7.9153e-06 -1.75882e-06 0)
(8.18013e-06 -1.6371e-06 0)
(8.44478e-06 -1.51316e-06 0)
(3.08764e-06 -3.87505e-06 0)
(3.36937e-06 -3.75495e-06 0)
(3.65252e-06 -3.63399e-06 0)
(3.93569e-06 -3.51274e-06 0)
(4.21898e-06 -3.39193e-06 0)
(4.50173e-06 -3.27189e-06 0)
(4.78375e-06 -3.15297e-06 0)
(5.06465e-06 -3.03521e-06 0)
(5.34423e-06 -2.91854e-06 0)
(5.62228e-06 -2.80277e-06 0)
(5.89868e-06 -2.68767e-06 0)
(6.17333e-06 -2.5729e-06 0)
(6.44626e-06 -2.4581e-06 0)
(6.71747e-06 -2.34294e-06 0)
(6.98702e-06 -2.227e-06 0)
(7.2551e-06 -2.10999e-06 0)
(7.52184e-06 -1.99162e-06 0)
(7.78764e-06 -1.87172e-06 0)
(8.05266e-06 -1.75019e-06 0)
(8.31759e-06 -1.62713e-06 0)
(3.01193e-06 -3.99766e-06 0)
(3.28739e-06 -3.87898e-06 0)
(3.56449e-06 -3.75892e-06 0)
(3.84204e-06 -3.63817e-06 0)
(4.12014e-06 -3.51746e-06 0)
(4.3982e-06 -3.39716e-06 0)
(4.67601e-06 -3.27766e-06 0)
(4.95318e-06 -3.15904e-06 0)
(5.22952e-06 -3.04128e-06 0)
(5.50482e-06 -2.92427e-06 0)
(5.77892e-06 -2.80784e-06 0)
(6.05172e-06 -2.6917e-06 0)
(6.3232e-06 -2.57556e-06 0)
(6.59332e-06 -2.45913e-06 0)
(6.86211e-06 -2.34208e-06 0)
(7.12972e-06 -2.22416e-06 0)
(7.39625e-06 -2.10522e-06 0)
(7.66202e-06 -1.98512e-06 0)
(7.92718e-06 -1.86386e-06 0)
(8.19226e-06 -1.7416e-06 0)
(2.93477e-06 -4.1165e-06 0)
(3.20426e-06 -3.99927e-06 0)
(3.47559e-06 -3.88e-06 0)
(3.74794e-06 -3.75983e-06 0)
(4.02123e-06 -3.63942e-06 0)
(4.29495e-06 -3.51912e-06 0)
(4.56887e-06 -3.39933e-06 0)
(4.84263e-06 -3.2802e-06 0)
(5.11598e-06 -3.16173e-06 0)
(5.38873e-06 -3.04385e-06 0)
(5.66071e-06 -2.92647e-06 0)
(5.93179e-06 -2.80934e-06 0)
(6.2019e-06 -2.69219e-06 0)
(6.47098e-06 -2.57482e-06 0)
(6.73903e-06 -2.45693e-06 0)
(7.00618e-06 -2.33836e-06 0)
(7.27249e-06 -2.21902e-06 0)
(7.53817e-06 -2.09878e-06 0)
(7.80337e-06 -1.97782e-06 0)
(8.06852e-06 -1.8563e-06 0)
(2.85492e-06 -4.23205e-06 0)
(3.11858e-06 -4.11582e-06 0)
(3.38445e-06 -3.99762e-06 0)
(3.65223e-06 -3.87827e-06 0)
(3.92115e-06 -3.75829e-06 0)
(4.19102e-06 -3.63819e-06 0)
(4.46146e-06 -3.51837e-06 0)
(4.73217e-06 -3.39899e-06 0)
(5.00289e-06 -3.28012e-06 0)
(5.27341e-06 -3.16172e-06 0)
(5.54353e-06 -3.04372e-06 0)
(5.81307e-06 -2.92591e-06 0)
(6.08196e-06 -2.80806e-06 0)
(6.35009e-06 -2.69001e-06 0)
(6.61748e-06 -2.57155e-06 0)
(6.88422e-06 -2.45253e-06 0)
(7.15027e-06 -2.33288e-06 0)
(7.41584e-06 -2.21258e-06 0)
(7.68099e-06 -2.09191e-06 0)
(7.94619e-06 -1.97101e-06 0)
(2.77047e-06 -4.34416e-06 0)
(3.02918e-06 -4.22912e-06 0)
(3.29056e-06 -4.1122e-06 0)
(3.55394e-06 -3.99369e-06 0)
(3.81908e-06 -3.87434e-06 0)
(4.08555e-06 -3.75466e-06 0)
(4.35303e-06 -3.63503e-06 0)
(4.62118e-06 -3.5157e-06 0)
(4.88971e-06 -3.39672e-06 0)
(5.15838e-06 -3.27808e-06 0)
(5.42694e-06 -3.15973e-06 0)
(5.69516e-06 -3.04151e-06 0)
(5.96301e-06 -2.92324e-06 0)
(6.23037e-06 -2.80476e-06 0)
(6.4972e-06 -2.6859e-06 0)
(6.7635e-06 -2.56659e-06 0)
(7.02925e-06 -2.44674e-06 0)
(7.29475e-06 -2.32643e-06 0)
(7.5599e-06 -2.20598e-06 0)
(7.82498e-06 -2.08559e-06 0)
(2.68031e-06 -4.45407e-06 0)
(2.93449e-06 -4.34043e-06 0)
(3.1918e-06 -4.22448e-06 0)
(3.4516e-06 -4.1069e-06 0)
(3.71363e-06 -3.98831e-06 0)
(3.97742e-06 -3.8692e-06 0)
(4.24265e-06 -3.74998e-06 0)
(4.5089e-06 -3.63088e-06 0)
(4.77582e-06 -3.51198e-06 0)
(5.04308e-06 -3.39331e-06 0)
(5.31046e-06 -3.27483e-06 0)
(5.57775e-06 -3.1564e-06 0)
(5.84482e-06 -3.03787e-06 0)
(6.1115e-06 -2.91916e-06 0)
(6.37778e-06 -2.80005e-06 0)
(6.64375e-06 -2.68049e-06 0)
(6.90931e-06 -2.56054e-06 0)
(7.17462e-06 -2.44023e-06 0)
(7.43973e-06 -2.31988e-06 0)
(7.70476e-06 -2.19986e-06 0)
(2.58329e-06 -4.56084e-06 0)
(2.83349e-06 -4.44877e-06 0)
(3.08741e-06 -4.33426e-06 0)
(3.34443e-06 -4.21788e-06 0)
(3.60418e-06 -4.1003e-06 0)
(3.86617e-06 -3.982e-06 0)
(4.12993e-06 -3.8634e-06 0)
(4.39496e-06 -3.74475e-06 0)
(4.66087e-06 -3.62613e-06 0)
(4.92735e-06 -3.50757e-06 0)
(5.19405e-06 -3.38913e-06 0)
(5.46069e-06 -3.27068e-06 0)
(5.72717e-06 -3.15202e-06 0)
(5.99338e-06 -3.03314e-06 0)
(6.25921e-06 -2.91392e-06 0)
(6.52478e-06 -2.79424e-06 0)
(6.79011e-06 -2.67423e-06 0)
(7.05524e-06 -2.55387e-06 0)
(7.32032e-06 -2.43356e-06 0)
(7.58529e-06 -2.31367e-06 0)
(1.91277e-07 -3.93541e-06 0)
(5.76474e-07 -3.87747e-06 0)
(9.69596e-07 -3.76386e-06 0)
(1.37512e-06 -3.59921e-06 0)
(1.79667e-06 -3.38975e-06 0)
(2.23651e-06 -3.14338e-06 0)
(2.69551e-06 -2.86906e-06 0)
(3.17287e-06 -2.57621e-06 0)
(3.66695e-06 -2.27432e-06 0)
(4.17378e-06 -1.97092e-06 0)
(1.85922e-07 -3.99952e-06 0)
(5.60013e-07 -3.9466e-06 0)
(9.40685e-07 -3.84274e-06 0)
(1.33172e-06 -3.69188e-06 0)
(1.73618e-06 -3.49931e-06 0)
(2.15598e-06 -3.27174e-06 0)
(2.59192e-06 -3.0168e-06 0)
(3.04317e-06 -2.74263e-06 0)
(3.50756e-06 -2.45787e-06 0)
(3.98205e-06 -2.16884e-06 0)
(1.81168e-07 -4.06523e-06 0)
(5.45375e-07 -4.01686e-06 0)
(9.14939e-07 -3.9218e-06 0)
(1.2929e-06 -3.78352e-06 0)
(1.68182e-06 -3.6066e-06 0)
(2.08331e-06 -3.3968e-06 0)
(2.49816e-06 -3.16069e-06 0)
(2.92615e-06 -2.9051e-06 0)
(3.36562e-06 -2.63756e-06 0)
(3.81466e-06 -2.36217e-06 0)
(1.76926e-07 -4.1326e-06 0)
(5.32332e-07 -4.08808e-06 0)
(8.92231e-07 -4.00053e-06 0)
(1.25904e-06 -3.873e-06 0)
(1.63493e-06 -3.7095e-06 0)
(2.02117e-06 -3.51506e-06 0)
(2.41836e-06 -3.29555e-06 0)
(2.82628e-06 -3.05694e-06 0)
(3.24351e-06 -2.80629e-06 0)
(3.66841e-06 -2.54673e-06 0)
(1.73031e-07 -4.20159e-06 0)
(5.20307e-07 -4.16053e-06 0)
(8.7135e-07 -4.07969e-06 0)
(1.22806e-06 -3.96182e-06 0)
(1.59228e-06 -3.81048e-06 0)
(1.96506e-06 -3.63013e-06 0)
(2.3469e-06 -3.42599e-06 0)
(2.73764e-06 -3.20312e-06 0)
(3.13623e-06 -2.96798e-06 0)
(3.54047e-06 -2.72336e-06 0)
(1.6939e-07 -4.2721e-06 0)
(5.09168e-07 -4.23402e-06 0)
(8.52102e-07 -4.15904e-06 0)
(1.19977e-06 -4.04961e-06 0)
(1.55368e-06 -3.90893e-06 0)
(1.91468e-06 -3.74104e-06 0)
(2.28314e-06 -3.55066e-06 0)
(2.65879e-06 -3.34228e-06 0)
(3.04109e-06 -3.12174e-06 0)
(3.42731e-06 -2.89186e-06 0)
(1.65893e-07 -4.34404e-06 0)
(4.98556e-07 -4.30863e-06 0)
(8.33861e-07 -4.23887e-06 0)
(1.17317e-06 -4.13698e-06 0)
(1.5177e-06 -4.00589e-06 0)
(1.86817e-06 -3.84923e-06 0)
(2.2249e-06 -3.67129e-06 0)
(2.58743e-06 -3.4761e-06 0)
(2.95565e-06 -3.26887e-06 0)
(3.32636e-06 -3.0527e-06 0)
(1.62549e-07 -4.41724e-06 0)
(4.88352e-07 -4.38418e-06 0)
(8.16414e-07 -4.31906e-06 0)
(1.14793e-06 -4.22384e-06 0)
(1.48386e-06 -4.10127e-06 0)
(1.82479e-06 -3.95465e-06 0)
(2.17104e-06 -3.78793e-06 0)
(2.52197e-06 -3.60478e-06 0)
(2.87783e-06 -3.40982e-06 0)
(3.23518e-06 -3.20638e-06 0)
(1.5928e-07 -4.49158e-06 0)
(4.78363e-07 -4.46063e-06 0)
(7.99437e-07 -4.39964e-06 0)
(1.12351e-06 -4.31043e-06 0)
(1.45141e-06 -4.19553e-06 0)
(1.7836e-06 -4.05794e-06 0)
(2.12037e-06 -3.90132e-06 0)
(2.46099e-06 -3.7291e-06 0)
(2.80591e-06 -3.54531e-06 0)
(3.15167e-06 -3.35351e-06 0)
(1.56004e-07 -4.56688e-06 0)
(4.68466e-07 -4.53781e-06 0)
(7.82713e-07 -4.48053e-06 0)
(1.09961e-06 -4.3967e-06 0)
(1.41988e-06 -4.28869e-06 0)
(1.74393e-06 -4.15924e-06 0)
(2.07198e-06 -4.01175e-06 0)
(2.40329e-06 -3.84944e-06 0)
(2.73841e-06 -3.67587e-06 0)
(3.07401e-06 -3.49467e-06 0)
(1.52689e-07 -4.64298e-06 0)
(4.58551e-07 -4.6156e-06 0)
(7.66007e-07 -4.56167e-06 0)
(1.07588e-06 -4.4827e-06 0)
(1.38878e-06 -4.38091e-06 0)
(1.7051e-06 -4.25883e-06 0)
(2.02504e-06 -4.11958e-06 0)
(2.34784e-06 -3.96626e-06 0)
(2.67406e-06 -3.802e-06 0)
(3.00063e-06 -3.63042e-06 0)
(1.49335e-07 -4.71967e-06 0)
(4.48521e-07 -4.69382e-06 0)
(7.49128e-07 -4.64293e-06 0)
(1.05201e-06 -4.56836e-06 0)
(1.3577e-06 -4.4722e-06 0)
(1.66656e-06 -4.3568e-06 0)
(1.97881e-06 -4.22505e-06 0)
(2.29369e-06 -4.07989e-06 0)
(2.61174e-06 -3.9241e-06 0)
(2.93018e-06 -3.76125e-06 0)
(1.45912e-07 -4.79676e-06 0)
(4.38229e-07 -4.77232e-06 0)
(7.31854e-07 -4.7242e-06 0)
(1.02768e-06 -4.65364e-06 0)
(1.32622e-06 -4.5626e-06 0)
(1.62777e-06 -4.45329e-06 0)
(1.93259e-06 -4.32837e-06 0)
(2.23998e-06 -4.19061e-06 0)
(2.5504e-06 -4.04255e-06 0)
(2.86144e-06 -3.88763e-06 0)
(1.42353e-07 -4.874e-06 0)
(4.27516e-07 -4.85085e-06 0)
(7.13955e-07 -4.80527e-06 0)
(1.00257e-06 -4.73839e-06 0)
(1.29388e-06 -4.65203e-06 0)
(1.58816e-06 -4.5483e-06 0)
(1.88569e-06 -4.42962e-06 0)
(2.18587e-06 -4.29863e-06 0)
(2.48908e-06 -4.15765e-06 0)
(2.79324e-06 -4.00995e-06 0)
(1.38594e-07 -4.95121e-06 0)
(4.16235e-07 -4.92925e-06 0)
(6.95195e-07 -4.88599e-06 0)
(9.76339e-07 -4.82251e-06 0)
(1.26023e-06 -4.74049e-06 0)
(1.54715e-06 -4.64189e-06 0)
(1.83741e-06 -4.52895e-06 0)
(2.13051e-06 -4.40416e-06 0)
(2.42676e-06 -4.2697e-06 0)
(2.72437e-06 -4.12857e-06 0)
(1.34593e-07 -5.02796e-06 0)
(4.04269e-07 -5.00711e-06 0)
(6.75344e-07 -4.96604e-06 0)
(9.48643e-07 -4.90573e-06 0)
(1.2248e-06 -4.82773e-06 0)
(1.50415e-06 -4.73388e-06 0)
(1.78702e-06 -4.62627e-06 0)
(2.07305e-06 -4.50723e-06 0)
(2.36243e-06 -4.37879e-06 0)
(2.6537e-06 -4.24369e-06 0)
(1.30311e-07 -5.10415e-06 0)
(3.91465e-07 -5.08435e-06 0)
(6.54102e-07 -5.04533e-06 0)
(9.19053e-07 -4.98799e-06 0)
(1.18704e-06 -4.91378e-06 0)
(1.45846e-06 -4.82439e-06 0)
(1.73369e-06 -4.72178e-06 0)
(2.01247e-06 -4.60815e-06 0)
(2.29496e-06 -4.48528e-06 0)
(2.57989e-06 -4.35581e-06 0)
(1.25692e-07 -5.17893e-06 0)
(3.77631e-07 -5.16014e-06 0)
(6.31145e-07 -5.12307e-06 0)
(8.87121e-07 -5.06857e-06 0)
(1.14637e-06 -4.99796e-06 0)
(1.40938e-06 -4.91283e-06 0)
(1.67655e-06 -4.81498e-06 0)
(1.94774e-06 -4.70645e-06 0)
(2.22308e-06 -4.58889e-06 0)
(2.50164e-06 -4.46472e-06 0)
(1.20633e-07 -5.2527e-06 0)
(3.62465e-07 -5.23488e-06 0)
(6.0599e-07 -5.1997e-06 0)
(8.52186e-07 -5.14795e-06 0)
(1.10194e-06 -5.08084e-06 0)
(1.35585e-06 -4.99982e-06 0)
(1.61438e-06 -4.90656e-06 0)
(1.87751e-06 -4.80293e-06 0)
(2.14536e-06 -4.69048e-06 0)
(2.41732e-06 -4.57137e-06 0)
(1.15081e-07 -5.32321e-06 0)
(3.45841e-07 -5.30634e-06 0)
(5.78423e-07 -5.27305e-06 0)
(8.13923e-07 -5.22403e-06 0)
(1.05333e-06 -5.16038e-06 0)
(1.29735e-06 -5.08348e-06 0)
(1.54651e-06 -4.9948e-06 0)
(1.80099e-06 -4.89607e-06 0)
(2.06092e-06 -4.78874e-06 0)
(2.32598e-06 -4.67473e-06 0)
)


// ************************************************************************* //
