# Time dispX dispY dispZ forceX forceY forceZ
0 0 0 0 0 0 0
1 1.0668e-06 -8.20683e-08 1.493e-23 100000 -6.94944e-05 6.79173e-19
