/*--------------------------------*- C++ -*----------------------------------*\
| =========                 |                                                 |
| \\      /  F ield         | foam-extend: Open Source CFD                    |
|  \\    /   O peration     | Version:     4.1                                |
|   \\  /    A nd           | Web:         http://www.foam-extend.org         |
|    \\/     M anipulation  |                                                 |
\*---------------------------------------------------------------------------*/
FoamFile
{
    version     2.0;
    format      ascii;
    class       volScalarField;
    location    "1";
    object      sigmaEq;
}
// * * * * * * * * * * * * * * * * * * * * * * * * * * * * * * * * * * * * * //

dimensions      [1 -1 -2 0 0 0 0];

internalField   nonuniform List<scalar> 
1000
(
106351.1693206995
121264.5409182329
133197.4068154392
142234.687858081
146434.2759606939
148074.8820713873
147827.3870537051
146444.6337176355
144585.4101240733
141978.7773381155
133125.0162935151
135280.2749116274
140494.8409120869
146111.3478262984
148471.5740066568
149105.9857715404
148245.8305892203
146581.9900001724
144274.6788867397
141913.9864249415
159215.6201629922
149195.5564842523
147004.8842700621
148517.2627795363
148591.8886442748
147941.3137115938
146318.6770729964
144234.9216202339
141603.5835569088
139156.9371699772
183821.725501729
162516.8707764357
152714.3727515301
149668.7016027408
147106.3661428604
144952.2957008985
142452.0832544039
139910.993081963
136999.8823108747
134530.1419384146
206253.6368671239
174793.2892534369
157599.4093986928
149798.8883990044
144364.0889488798
140531.7218134497
137069.0576721606
134029.3429293234
130902.1265493746
128403.4903285443
225912.4643719883
185639.2310455744
161660.3947085254
149206.4392403281
140825.0104627581
135217.5253118808
130729.5097405057
127155.121401011
123830.1482376366
121281.3835621297
242282.9923827558
194722.0154199963
164895.6280031342
148202.0066849047
137005.1227842682
129638.5441814821
124116.8750857422
119987.7652527445
116477.0904078664
113842.6927850107
254941.3239840169
201777.4472925135
167319.3267491547
147109.7154569307
133470.3863332201
124517.8078191894
118039.3123857219
113378.6981056828
109694.4952131832
106949.3114848242
263561.3700844511
206595.6633311781
168927.357818985
146196.9375473806
130740.0933718107
120566.0823733586
113330.8044573545
108235.9654401034
104409.3689319736
101556.6437974186
267882.5910331935
208985.880328848
169654.7937545128
145594.6897869493
129155.8156334727
118307.0131732985
110645.6240194369
105301.9080466776
101392.6579215991
98476.63878065937
97694.8484531205
64720.10209780565
46347.09651949797
38713.50085061198
35963.17188440048
36491.80355864674
38462.29755938049
41307.30326497618
44376.39663858918
47492.48222281899
93593.17574028799
64482.50379208444
50565.68497784494
46539.19401141596
45787.65377782327
46912.81894704151
48662.28449457919
50890.44268648968
53127.06231000507
55608.98131355784
85354.84367920685
64149.67957603949
57762.98194617032
58561.51052439226
60103.21409045945
61940.7669706478
63531.68569465287
65145.44042249848
66451.58427522852
68199.60820113042
73495.57019326705
64388.77999348412
66827.99137052472
72155.82455429817
75660.95450079901
78137.07815333181
79646.66566685554
80782.19845094753
81310.06332725777
82416.77754014338
58844.95203300255
65962.24587493816
76826.7666243461
85849.40824358213
90887.71536797039
93864.53454269843
95309.36379646815
96053.2202634399
95947.64259624197
96497.1304248634
43288.18360371941
69585.99337904836
87119.45017584032
98832.36552275928
104955.7012218749
108261.9493222093
109616.9904422308
110008.6353601974
109381.9472115054
109423.4080731327
32360.32447665859
75715.27449296744
97317.98104153664
110651.0612946908
117394.3812932612
120837.1495502075
122052.349158027
122111.4927057305
121056.933808616
120620.4956826631
36781.82270940673
84370.8237401213
107159.22062402
121009.9351367878
127883.1102529771
131240.7133514902
132249.735590123
131973.0659850935
130600.3558227592
129684.6739112792
55473.57012889967
95220.67578873604
116488.734642829
129765.8045528166
136266.2113915286
139314.5945260035
140032.2065230151
139443.2316764625
137836.7695140722
136545.9757286544
79925.00692462345
107718.17221066
125186.3062459612
136822.9602239996
142417.5800661254
144869.2425567507
145152.7741261695
144136.7871166288
142442.9547174237
140422.3829014629
50683.44716581121
53340.59003988627
55851.18457752269
58135.1831902272
60145.81032838691
61911.69455354964
63411.54779481512
64657.53760400633
65644.61684036916
66374.56387521862
66841.26123891045
67040.28942232019
66954.96254954336
66579.48256082325
65872.82902859343
64847.54354117229
63395.98099199206
61630.49667890913
59218.51278921989
56716.26617202222
57642.71132198397
58998.67205764323
60547.73199121501
62025.99781229821
63387.63250988065
64623.76900068414
65691.06521194734
66581.25692753321
67274.94946594094
67761.13133124026
68024.9104840837
68054.08474127705
67826.67983475841
67332.22280740735
66526.93865623782
65420.56522211978
63905.38278548418
62091.75611234376
59652.85318414185
57140.76839021043
68731.26082185269
68298.88382899642
68432.1179504903
68683.83838889524
69015.67533088072
69388.62004533807
69734.05374227284
70019.4432659689
70207.3130307416
70268.43080250072
70175.55323980951
69904.48361816273
69425.20876204103
68719.74503714422
67740.1276898014
66491.43313889095
64866.57879023287
62972.00361314156
60492.85004578571
57970.40366527998
81573.29103849152
79436.09300057068
78109.90532708449
77053.84848882299
76232.96982570605
75604.63338775765
75086.67687570557
74628.34524481835
74180.62459213
73697.01559098424
73139.89953518851
72472.79648865669
71657.85490863687
70669.02473924171
69454.29437496662
68013.55321362785
66241.87361334833
64240.84823425735
61713.88283071673
59186.67765266321
94522.3945022672
90998.36208284347
88370.16374822173
86120.44837679793
84198.3245989967
82576.60574220146
81177.72269480549
79937.82918296225
78808.07100822053
77728.29408274956
76655.39214788789
75542.7496941197
74346.57911759061
73033.82845964137
71549.66458839107
69889.34420224193
67952.28846381743
65835.12929098004
63265.88513463562
60750.60093146041
106568.5933132409
102059.4309205506
98382.16444452654
95146.74649977134
92283.429349643
89771.22880614559
87564.03510091241
85582.01203882445
83788.95970184132
82115.30065491609
80518.15486229434
78945.09717560865
77349.67725696007
75694.64745199056
73924.69636874989
72032.12440624229
69923.57814827614
67691.53683234028
65095.3947355236
62619.44222163173
117129.1488682188
112041.7742010104
107610.0117902476
103595.8533775471
99983.94427435569
96709.5124893302
93798.42845246082
91150.16510242294
88750.54980303493
86525.85746015774
84435.84437872222
82426.05172735082
80449.07161865391
78465.86157995698
76422.61384376086
74310.47393567966
72046.17204748603
69718.92521525234
67124.63346978049
64721.76365875063
125791.7070886936
120523.3994580987
115757.1253507761
111211.7640502851
107107.7277719177
103259.0960787199
99790.43191060958
96587.29235210324
93657.20965176515
90934.8873006419
88385.85748321585
85961.07345709768
83615.83441559838
81313.19946246507
79003.64516464637
76679.40216190435
74270.08705731803
71863.18058999447
69296.20764051739
67003.85691090609
132527.6782798728
127189.2054085896
122485.1787215587
117581.1300093161
113146.1527456388
108875.6567059103
104967.8942418221
101332.2026930049
97979.56821305734
94860.639958571
91941.78431465733
89180.39362388439
86534.71241922026
83971.5732544325
81447.806574489
78958.9396724488
76450.49799337104
74009.05877708193
71516.41382810932
69371.72304051426
137102.4438245785
132051.7615366422
127886.2094490217
123109.8696794551
118580.1008507269
114122.986973226
109901.1882766527
105916.4546823351
102186.6189083428
98695.60956578265
95420.2203343955
92329.46455369935
89388.05315686367
86568.02849765618
83833.58306269559
81184.44695307032
78583.70224646597
76119.3121980506
73720.25912721323
71758.19608958751
138875.5544125891
133739.7944453805
129774.8018032698
125386.6984126506
121023.7494278238
116716.9315229832
112551.3219079778
108559.9790856217
104767.1411473284
101173.5002048093
97770.83889635658
94542.61214935902
91467.07607938224
88528.15568364957
85703.63896929883
83002.55488936017
80407.82931664056
78008.58128991943
75775.97696338133
74033.85154172545
135345.3219030237
132290.8988281072
128728.6379971405
124946.746517975
121017.5819848313
117069.9652318441
113176.519275079
109386.2418250965
105732.3590789668
102228.7286464137
98879.64066120934
95681.45967588032
92625.48253315201
89707.74190314917
86919.85729299879
84281.44810895593
81793.05889524058
79547.94152311196
77552.08656681303
76094.40445008254
132442.5734725577
129925.6061761449
127073.873011551
123829.2453541327
120379.15117071
116818.0119645254
113239.0275111741
109695.9281123664
106232.9060737533
102873.4351953862
99633.03112500638
96518.89274544232
93534.09513181919
90685.25177745952
87976.93723338074
85437.43301140395
83083.99458157101
81011.3630170973
79254.12274187926
78057.37050002103
129145.7763780002
127216.7409220696
124898.2755957865
122123.2865341393
119116.6651926495
115934.284107562
112684.9162269059
109417.7853075696
106185.3447066316
103016.6592424854
99935.94590711288
96958.93375290366
94098.50735539096
91370.43117223641
88790.04506156543
86393.52372451797
84209.68047028533
82334.30691727756
80823.71352090903
79880.85077512324
125581.8795945152
124130.2108975425
122307.0693583017
119986.1993338052
117415.5560580797
114617.1842283792
111710.6195381078
108740.5461453256
105765.9533325382
102819.9541473197
99933.82089006087
97130.05399493588
94429.83877418458
91855.95518610459
89433.81421705881
87202.6981737367
85203.64454036011
83530.97386920653
82255.88037078349
81543.0814761021
121917.2726249404
120876.1270571068
119469.3307786565
117549.4413879899
115374.0104851816
112940.0796877534
110370.6374576361
107704.6592400352
105004.0414568295
102303.6434403151
99639.46150863857
97038.74711682471
94529.08049319258
92139.19570762465
89901.25516582199
87862.13471492931
86057.06987528843
84588.6870616255
83536.38259742237
83028.44776535385
118237.5563230269
117535.9402172866
116484.9376937482
114927.3626646586
113113.9914545702
111025.4732160245
108782.6385445111
106420.2439458338
104000.0506742404
101557.7116919325
99131.78765982256
96752.95257129044
94453.05179242026
92264.76257697541
90228.27596880533
88380.86095139034
86776.11095788091
85509.27771636205
84661.5382375747
84329.63791369744
114619.6467156583
114194.3420324035
113440.751569799
112199.7560546562
110710.5090923663
108942.4554006939
107009.3747235152
104943.4034208945
102803.7366183141
100625.244105738
98447.66998255443
96302.38545086465
94225.09134003695
92249.33225344973
90421.24825550265
88807.60178135948
87380.25544799565
86295.47714857195
85630.92045220913
85444.38756630341
111109.881915357
110903.734875137
110396.6252878324
109434.0226591589
108235.1674482975
106761.5268259165
105119.6429065161
103340.5244350064
101477.0784934432
99563.33260118832
97637.65406575036
95733.22810182509
93881.98303570067
92128.30739124579
90502.74016240914
89062.03023288849
87865.115775556
86957.5855326874
86452.23858013075
86379.96951617951
107735.0631363025
107701.3393583515
107397.8412849757
106672.6333855563
105733.6239792756
104535.0905194365
103165.3541792032
101659.2051541987
100064.6057904602
98411.45984912253
96738.68599525477
95074.53501352631
93459.10181308922
91910.36106635792
90502.96719324385
89358.07473273642
88234.20767310729
87483.17194754277
87120.31411307547
87139.46596897868
104505.5563318452
104607.6665507273
104471.81185094
103960.8719490786
103248.7134102453
102297.7448807881
101183.9231784134
99940.96401527587
98606.85370452826
97208.19361377436
95783.72018362689
94359.42951152443
92975.33210926187
91652.24002231217
90446.09953258673
89380.02694231649
88522.64305614484
87924.42975756843
87655.92472966071
87742.98324354639
101424.0336396788
101639.5834152043
101650.0595067635
101309.3302219998
100797.4348852378
100096.4109620942
99227.23933930756
98222.71350121259
97138.20082343978
95983.04416414414
94797.85684378051
93604.60594419556
92440.27655557479
91329.14053304768
90320.55627632022
89470.07733163645
88740.25190474383
88256.79013597708
88079.44493926554
88202.75231853955
98486.73058703933
98791.63666671148
98972.869710167
98758.24684688123
98669.22244076416
97931.66796874181
97348.43915068945
96544.47999441168
95697.73610540071
94770.23452021599
93814.21226967528
92842.98003472255
91890.18393632519
90980.74047279925
90149.72790804582
89441.11842238244
88881.04579399353
88506.52664855061
88394.94394742642
88538.97037033703
95663.89394229359
96060.91008795655
96329.70495894738
96335.61482744906
96177.37914366112
95872.01319858767
95457.24450117216
94915.06297649319
94285.26688816192
93587.90642185599
92849.65715363361
92091.1364314831
91339.50630402415
90619.55222799163
89962.05474625272
89403.1384137228
88961.47678654808
88680.63043914853
88618.9369116524
88767.14022251882
92974.36582208198
93470.66471376814
93851.25613500095
94020.54562238281
94055.03134535575
93935.29560397287
93704.55627253746
93372.87361167667
92954.54749556171
92467.19703688413
91933.46137821631
91371.92604186136
90806.30403856345
90259.07918609417
89756.51072237383
89327.20542646336
88998.27547137038
88794.21287482492
88766.97334105567
88906.10960516747
90420.14611136341
91028.12518591332
91539.14706755421
91868.66832381158
92073.10099757717
92135.92089420179
92099.70871492667
91959.92491987321
91734.91673497541
91439.13194638623
91090.81467059096
90707.49313778862
90309.49661092597
89917.11293982741
89552.9485433169
89240.41466912313
89002.76390635443
88860.95716366173
88854.57475680941
88974.42756010563
87988.60555327215
88732.96551396248
89389.37692234917
89887.98584567485
90271.79849272562
90520.38965961576
90662.75466781206
90702.90809978184
90653.60165435747
90528.23831298594
90343.02000295937
90114.43198086454
89861.05589653192
89601.33744845771
89355.2462254291
89141.80025265725
88981.8413675145
88889.5289969131
88894.18551648982
88987.65870847677
85745.04188769386
86656.31744605265
87480.40044849744
88159.35909057128
88719.18181196586
89145.40936049126
89457.07224453037
89656.9042419804
89758.7057571242
89775.25882271126
89722.92219163118
89618.44033354759
89480.10095280639
89325.74085105445
89173.68891626167
89040.12114687827
88941.96489190419
88889.00077027193
88900.00860783632
88966.14192634575
83657.36288307626
84789.48471571189
85820.40159327713
86704.96272483196
87453.11171600834
88054.26201754574
88520.50220617592
88857.86992493336
89080.55048913274
89203.63657187506
89245.65498713515
89225.8397883773
89164.61423894293
89081.37611403532
88995.10308408579
88920.78612210706
88872.87454242392
88855.2267863539
88876.64659092022
88921.22491545662
81948.23729067939
83338.7374374049
84595.28092030904
85687.54772948637
86613.79369526061
87366.68866419312
87956.68995932212
88392.14702519181
88690.69255295546
88871.08129595
88956.36880457136
88970.24853036829
88937.6622001817
88881.88964509389
88825.12849200184
88783.69432925482
88771.7693111142
88788.6382266779
88835.3283428096
88880.71046706701
96382.77138708699
99250.17774986695
104275.0570030286
110738.2871169094
117767.5719449773
124565.0609486028
130491.9798119661
135097.6295856659
138231.0500204086
139433.756736054
94633.16209588487
97150.30508157921
101605.650572801
107435.7012721852
113929.4645160555
120409.4644516526
126302.2915704851
131077.3312364066
134562.6812659517
136214.3070578169
93215.43846470906
95417.94419559231
99331.20735478932
104499.2737371169
110332.9761669757
116260.7392086375
121842.38759427
126622.505392852
130577.6764560735
133156.360779215
92042.4066371699
93960.25953608616
97387.80844264348
101962.0548977179
107197.7431459262
112596.8730444131
117779.8677896337
122316.0447940634
126195.6353943428
129304.2576869441
90994.50483143356
92660.12277184342
95649.66817982873
99674.57215202073
104339.2362091082
109227.1108472695
114022.2323220899
118363.4856121122
122115.2682105164
125404.6631498317
90045.25040560358
91490.42860786337
94094.61085975464
97626.97966370483
101758.9705281238
106140.42452954
110489.0622136504
114542.4926586181
118069.1789057386
121409.9249049741
89132.60415674417
90386.66098564971
92654.24331438843
95752.18534809416
99406.88407816623
103331.6166485093
107262.9886980532
111022.5292820981
114282.0224552265
117496.3047095572
88230.66822314434
89319.14159611231
91292.78418455417
94005.67957076813
97226.17631134443
100722.474722106
104246.5160542036
107695.9097632662
110690.9725579375
113715.9817054165
87305.77781543949
88252.15126688112
89972.42780751841
92350.71504353931
95189.11299483718
98301.51698492811
101452.6145719536
104591.5850056259
107321.9363098181
110109.8989127947
86334.32482158112
87158.4373857301
88659.71604337961
90745.67189646092
93245.86974119375
96011.3170300284
98822.80821255324
101663.1791179149
104146.3778707561
106688.4874081428
85290.69780378377
86010.59176017733
87324.91896624037
89159.31577585838
91366.19421597662
93824.82088459547
96333.90381666036
98893.43018723118
101146.53536058
103447.2324618992
84152.50168169544
84783.72976102096
85938.98070670523
87557.63525764545
89511.5647098842
91701.36206389841
93945.41715054707
96250.10741931559
98296.02671353209
100374.1478044337
82891.02085485018
83447.84653589877
84470.00921127178
85907.03411850934
87647.35706852823
89606.82920096235
91623.8816877318
93703.3698963474
95568.40054344751
97446.88783215822
81484.34834085095
81979.62497888302
82892.36909561837
84179.40244779132
85743.28415409281
87510.65329660641
89339.02139516636
91227.4964543985
92938.95956603123
94646.98895465383
79887.96184102914
80334.08880143147
81160.57191586487
82329.21026609116
83754.41948462327
85370.13142403594
87051.42654669209
88789.29170982249
90384.24620469565
91960.49153948731
78088.31769855307
78497.21078528206
79259.85247198814
80341.18424596023
81665.36394309174
83170.94186419633
84748.38893898428
86379.15374312497
87897.84277819039
89384.09385541026
75993.55946531512
76378.13523228397
77101.60812851221
78130.49931038189
79396.61642197448
80840.99234194128
82366.85427537269
83945.14729712439
85440.48630991824
86891.45466323924
73642.07677513963
74015.60728448628
74724.97656983996
75737.09580987414
76989.42041447639
78423.81683545483
79953.21119663725
81537.67774983366
83066.85497977205
84542.21148498893
70785.05554198017
71165.84656698351
71896.16705549532
72941.9035686439
74243.76694479382
75743.03947422444
77357.5084152403
79036.3264733541
80686.25297772021
82275.95609698225
67717.27182803552
68123.65990101514
68907.61610330606
70033.51745809801
71443.09715852237
73076.69970698256
74850.41107121881
76706.75894061176
78552.1775259921
80338.13521908291
)
;

boundaryField
{
    left
    {
        type            symmetryPlane;
        value           nonuniform List<scalar> 
30
(
96316.15295895831
94574.69500674606
93163.95902162681
91997.4769183357
90955.70417031826
90011.67493146464
89103.6793595988
88205.69783927877
87284.26140949981
86315.79258636192
85274.7966256673
84138.94195815608
82879.58773192817
81474.88648715451
79880.3582292933
78082.50116671636
75989.44787474538
73639.58898940646
70783.93271592965
67717.14586189364
267306.1785348026
208797.0528877284
169611.9392219865
145592.8676838315
129150.5256826166
118284.4992380006
110605.2588037669
105247.8069697071
101330.5165882449
98407.36107653026
)
;
    }
    right
    {
        type            calculated;
        value           nonuniform List<scalar> 
30
(
56558.34112398065
56981.21702377386
57810.08288754247
59025.85712410769
60589.80376447647
62461.54009940605
64567.07552956362
66858.64431542088
69230.97621766913
71638.53251022928
73920.08298548887
76002.95678766131
77983.39408533918
79823.19667684316
81500.50674376934
82998.84793250676
84310.93773189643
85435.18290098966
86377.08726835229
87142.26884705602
87748.01518815551
88210.68454230887
88547.30436750718
88775.82764537387
88913.95203424919
88981.2045487327
88992.77347992963
88970.02279380383
88923.57561691405
88886.42378580029
)
;
    }
    down
    {
        type            symmetryPlane;
        value           nonuniform List<scalar> 
30
(
97585.87008367905
64687.23034604258
46023.75500564073
38022.04649183208
35031.57052403906
35504.58591603836
37531.91170466053
40482.08238756767
43669.84012568805
46872.60667477669
50188.48436765739
52964.97692151358
55557.08407110368
57904.33113504782
59962.89528276544
61765.33604129405
63293.62308350259
64561.76993156131
65566.46582957444
66310.54566632259
66788.79942141377
66997.42910137666
66920.23906356661
66551.80420804485
65851.35614487846
64831.65338372882
63385.09203965076
61624.09808995217
59215.70628735523
56715.95594856334
)
;
    }
    up
    {
        type            calculated;
        value           nonuniform List<scalar> 
30
(
67620.53555965378
68026.40578629776
68810.77610653464
69937.48500648343
71348.36412926932
72984.84216335136
74761.59003689891
76624.08774971984
78472.84375787101
80269.84925598829
81885.03640225113
83285.16582826979
84551.5385434315
85651.32851122164
86584.96079733664
87343.54313941186
87938.31723440923
88377.34649846167
88678.63860250833
88860.99465987929
88947.75363513883
88962.7333513902
88931.11351157926
88876.23554547949
88820.50492062488
88780.06900571071
88769.35533193297
88786.83660735372
88834.32925323861
88876.48569448969
)
;
    }
    hole
    {
        type            calculated;
        value           nonuniform List<scalar> 
20
(
103092.6593498862
132299.322921274
160406.4807251555
186733.3621387647
210638.1196078041
231535.065004137
248908.484048509
262328.0891139296
271458.2016549311
276048.6059019915
100964.9517585313
96339.4768183845
87072.04251573645
73452.97346101637
55847.46364278113
34704.15544373477
10565.84935259054
15960.19777340573
44211.72478327122
73494.45825030308
)
;
    }
    frontAndBack
    {
        type            empty;
    }
}


// ************************************************************************* //
