/*--------------------------------*- C++ -*----------------------------------*\
| =========                 |                                                 |
| \\      /  F ield         | foam-extend: Open Source CFD                    |
|  \\    /   O peration     | Version:     4.1                                |
|   \\  /    A nd           | Web:         http://www.foam-extend.org         |
|    \\/     M anipulation  |                                                 |
\*---------------------------------------------------------------------------*/
FoamFile
{
    version     2.0;
    format      ascii;
    class       vectorField;
    location    "1";
    object      solidsCellD_iteration12;
}
// * * * * * * * * * * * * * * * * * * * * * * * * * * * * * * * * * * * * * //


1000
(
(4.415334088541407e-07 -1.346996848045015e-07 0)
(4.218718810306304e-07 -1.281390710617815e-07 0)
(4.103940545468841e-07 -1.251915280889949e-07 0)
(4.04772910625918e-07 -1.254321462232228e-07 0)
(4.033690476146008e-07 -1.276674005945067e-07 0)
(4.050857833303363e-07 -1.313698849170066e-07 0)
(4.091310241451978e-07 -1.360922857226363e-07 0)
(4.147672810642311e-07 -1.416694616113561e-07 0)
(4.220097250956781e-07 -1.476955799390962e-07 0)
(4.292539238734547e-07 -1.540254813808742e-07 0)
(3.99948624222766e-07 -1.474256332599966e-07 0)
(3.790769160646003e-07 -1.441625267473722e-07 0)
(3.667062508715337e-07 -1.433553314523112e-07 0)
(3.603561554472334e-07 -1.450924182468698e-07 0)
(3.582122588949453e-07 -1.483704575431014e-07 0)
(3.591786093074101e-07 -1.52807659834661e-07 0)
(3.624456048955446e-07 -1.580201761736597e-07 0)
(3.672996346061937e-07 -1.639902419972513e-07 0)
(3.736217848916796e-07 -1.701823602355874e-07 0)
(3.801474021645937e-07 -1.769761306780022e-07 0)
(3.565323407503698e-07 -1.594309622386994e-07 0)
(3.352041438481929e-07 -1.598373957769106e-07 0)
(3.223942865944517e-07 -1.614136022823693e-07 0)
(3.156453389610586e-07 -1.647239152257348e-07 0)
(3.130848886115391e-07 -1.690455260081727e-07 0)
(3.135462423153403e-07 -1.74178506651637e-07 0)
(3.162550417616798e-07 -1.798705114238523e-07 0)
(3.205640458041509e-07 -1.861314237329284e-07 0)
(3.26275505064773e-07 -1.9248618060536e-07 0)
(3.324013963209621e-07 -1.993027349130909e-07 0)
(3.115416652466321e-07 -1.705252398332896e-07 0)
(2.907685396617075e-07 -1.747326764803232e-07 0)
(2.781453117007788e-07 -1.787598533713709e-07 0)
(2.713236726713469e-07 -1.83657132024339e-07 0)
(2.685673554510162e-07 -1.890240909871124e-07 0)
(2.686999215822356e-07 -1.948309346949676e-07 0)
(2.709043380144458e-07 -2.009566585769312e-07 0)
(2.747164386483201e-07 -2.074657511439584e-07 0)
(2.798240154916843e-07 -2.139871362972261e-07 0)
(2.854985250077311e-07 -2.208862789662639e-07 0)
(2.654894503408649e-07 -1.804712016938657e-07 0)
(2.460252776945308e-07 -1.884152267783252e-07 0)
(2.341269227583632e-07 -1.94827296449339e-07 0)
(2.276605774479327e-07 -2.012722143416001e-07 0)
(2.249315233774478e-07 -2.076427997673193e-07 0)
(2.24804430912612e-07 -2.141203946035703e-07 0)
(2.265884138334349e-07 -2.206756833315501e-07 0)
(2.298918162290018e-07 -2.274359968886277e-07 0)
(2.34402220852258e-07 -2.341620334503625e-07 0)
(2.394709505551933e-07 -2.411600996066708e-07 0)
(2.18334794901117e-07 -1.891262837599067e-07 0)
(2.011528523936277e-07 -2.00527227749614e-07 0)
(1.906204027904352e-07 -2.091699585198181e-07 0)
(1.8478536036092e-07 -2.170827665279983e-07 0)
(1.822190863943306e-07 -2.243939219215257e-07 0)
(1.819271143001193e-07 -2.314819619223949e-07 0)
(1.833862197520687e-07 -2.384256409048276e-07 0)
(1.861833582167307e-07 -2.454172848533267e-07 0)
(1.900098733915642e-07 -2.523525165669858e-07 0)
(1.943220863601187e-07 -2.594759287992807e-07 0)
(1.705545483987235e-07 -1.962354769454952e-07 0)
(1.563100793783112e-07 -2.106764794437365e-07 0)
(1.475539322499699e-07 -2.212894403135506e-07 0)
(1.42646925027091e-07 -2.304982445784786e-07 0)
(1.404553790300778e-07 -2.386231748093077e-07 0)
(1.401541808479529e-07 -2.462397711735031e-07 0)
(1.413050332395952e-07 -2.535242863784635e-07 0)
(1.435288840151884e-07 -2.607366412959938e-07 0)
(1.465686145782329e-07 -2.678709303107633e-07 0)
(1.500083659407339e-07 -2.751052440335635e-07 0)
(1.222243876374698e-07 -2.017268931045396e-07 0)
(1.115103230043142e-07 -2.186214799878525e-07 0)
(1.049455747415865e-07 -2.307762540275029e-07 0)
(1.012798320299882e-07 -2.409718652487735e-07 0)
(9.964010219772102e-08 -2.497697654316711e-07 0)
(9.938968157172326e-08 -2.578326604092196e-07 0)
(1.001921549838037e-07 -2.654312655036717e-07 0)
(1.017791941529647e-07 -2.72825706959374e-07 0)
(1.039756746178724e-07 -2.801210966331488e-07 0)
(1.064771807426687e-07 -2.874519008735538e-07 0)
(7.347934475870854e-08 -2.054575056841426e-07 0)
(6.685111973868421e-08 -2.240331595241215e-07 0)
(6.283161101236587e-08 -2.372510215069011e-07 0)
(6.054504417831806e-08 -2.481924882173104e-07 0)
(5.948000690913306e-08 -2.574642502731945e-07 0)
(5.928621788481926e-08 -2.6580675500064e-07 0)
(5.978906290757744e-08 -2.736253592950753e-07 0)
(6.078228833375858e-08 -2.811916166228849e-07 0)
(6.210763440598278e-08 -2.886227996761631e-07 0)
(6.361493278587297e-08 -2.960238038749284e-07 0)
(2.454347982564078e-08 -2.073351225716437e-07 0)
(2.231756514192294e-08 -2.267986633798455e-07 0)
(2.090401869992553e-08 -2.405599374827025e-07 0)
(2.01192149215023e-08 -2.518538074338529e-07 0)
(1.980403266557441e-08 -2.613638586983638e-07 0)
(1.973867935815838e-08 -2.698837717898468e-07 0)
(1.986045208044085e-08 -2.777916030820846e-07 0)
(2.018474126028979e-08 -2.854083966664237e-07 0)
(2.064876741349182e-08 -2.929095903494732e-07 0)
(2.115393047484689e-08 -3.00365060010254e-07 0)
(6.788428684250215e-07 -6.036878949013161e-09 0)
(6.835710871206547e-07 -4.386810901716937e-09 0)
(6.876000820901002e-07 -3.407143913356815e-09 0)
(6.92471157071838e-07 -2.892495333846807e-09 0)
(6.984193739705852e-07 -2.678648745442404e-09 0)
(7.055757293487283e-07 -2.698975592093233e-09 0)
(7.140452209303518e-07 -2.876278735206195e-09 0)
(7.236787416771404e-07 -3.094718259718326e-09 0)
(7.345553222922438e-07 -3.434930601424354e-09 0)
(7.464821886204756e-07 -3.847631627883758e-09 0)
(6.74044474358365e-07 -1.8177991360136e-08 0)
(6.779896545828409e-07 -1.331928746643285e-08 0)
(6.815374940352607e-07 -1.038894597409169e-08 0)
(6.860418821499028e-07 -8.933826983066779e-09 0)
(6.917321014189432e-07 -8.403413137496992e-09 0)
(6.986807299273386e-07 -8.388601651025488e-09 0)
(7.070401074367628e-07 -8.876638913331059e-09 0)
(7.165888719104158e-07 -9.681947688584067e-09 0)
(7.273401089987419e-07 -1.071853738034106e-08 0)
(7.391980791582211e-07 -1.18441647992825e-08 0)
(6.645114019265424e-07 -3.037118439922892e-08 0)
(6.66898753323925e-07 -2.264528139904677e-08 0)
(6.694842884798023e-07 -1.799937652754625e-08 0)
(6.73343436410778e-07 -1.557035291487876e-08 0)
(6.786012933748702e-07 -1.471621544401999e-08 0)
(6.852730950334153e-07 -1.484077902079322e-08 0)
(6.933480463024323e-07 -1.570573893215669e-08 0)
(7.027413128089653e-07 -1.701500014381633e-08 0)
(7.132681781248868e-07 -1.86844181738934e-08 0)
(7.249797728891535e-07 -2.055202067972574e-08 0)
(6.503592682750139e-07 -4.279371602655687e-08 0)
(6.505324904663643e-07 -3.257972517713471e-08 0)
(6.516961370893656e-07 -2.655845460998299e-08 0)
(6.546504290884509e-07 -2.345579066511208e-08 0)
(6.592639474333799e-07 -2.236475621237462e-08 0)
(6.655371328920423e-07 -2.256700419692519e-08 0)
(6.732707818235229e-07 -2.373709955090245e-08 0)
(6.824435836289052e-07 -2.554849943379078e-08 0)
(6.926848630701274e-07 -2.784786934393234e-08 0)
(7.042190471846665e-07 -3.044133046346592e-08 0)
(6.317232796388586e-07 -5.543176146880217e-08 0)
(6.292242680736957e-07 -4.333469358907463e-08 0)
(6.28629633712784e-07 -3.627709452104428e-08 0)
(6.304309199910188e-07 -3.273806150227986e-08 0)
(6.342718033127799e-07 -3.156024195203351e-08 0)
(6.400161074383155e-07 -3.192584174775292e-08 0)
(6.473247692903158e-07 -3.343928597523117e-08 0)
(6.561835627279995e-07 -3.574064154794689e-08 0)
(6.661009804210291e-07 -3.861871050452654e-08 0)
(6.774600744943156e-07 -4.185497784924177e-08 0)
(6.088032741427949e-07 -6.834614150301997e-08 0)
(6.032644984056486e-07 -5.510060295979215e-08 0)
(6.007515902552035e-07 -4.743375732792174e-08 0)
(6.01285801567547e-07 -4.372246170215757e-08 0)
(6.042456789693644e-07 -4.26420539861469e-08 0)
(6.093730441079938e-07 -4.326623246059932e-08 0)
(6.162444679536881e-07 -4.514661701534937e-08 0)
(6.247541600727755e-07 -4.787944991207501e-08 0)
(6.343248961345478e-07 -5.128572780947997e-08 0)
(6.45471864731938e-07 -5.509342296391838e-08 0)
(5.819794160023122e-07 -8.151412743065063e-08 0)
(5.731735044997174e-07 -6.794998377882308e-08 0)
(5.685879492050045e-07 -6.018316026094618e-08 0)
(5.677895750849169e-07 -5.660459504624834e-08 0)
(5.698322758236916e-07 -5.577311901005685e-08 0)
(5.743326541907156e-07 -5.674297062875031e-08 0)
(5.807503995903322e-07 -5.900642931182435e-08 0)
(5.88897910238904e-07 -6.210666244683347e-08 0)
(5.981199045238473e-07 -6.596238813886886e-08 0)
(6.090576803051034e-07 -7.022425405881466e-08 0)
(5.514601577543259e-07 -9.482999967633009e-08 0)
(5.394422905727852e-07 -8.18467358785495e-08 0)
(5.3283285218792e-07 -7.452358290235175e-08 0)
(5.306931803416288e-07 -7.141548467823927e-08 0)
(5.318680692003792e-07 -7.102193043710212e-08 0)
(5.357434180370384e-07 -7.245449898115414e-08 0)
(5.416916861107347e-07 -7.515645571469339e-08 0)
(5.494675900575199e-07 -7.86305189988297e-08 0)
(5.583683737432914e-07 -8.289151089938168e-08 0)
(5.690253957686056e-07 -8.748408727921851e-08 0)
(5.176351065499063e-07 -1.082361080053011e-07 0)
(5.026283709177718e-07 -9.664475394166909e-08 0)
(4.941160734874196e-07 -9.034107997304621e-08 0)
(4.906758315493947e-07 -8.803642025371211e-08 0)
(4.909794173020685e-07 -8.82947876753236e-08 0)
(4.941477261151304e-07 -9.029028723842347e-08 0)
(4.995522264187793e-07 -9.347698817146336e-08 0)
(5.068670810724758e-07 -9.73276774696343e-08 0)
(5.154510314938021e-07 -1.019156955010884e-07 0)
(5.257391631859265e-07 -1.065613934648307e-07 0)
(4.808838167296926e-07 -1.215994713159211e-07 0)
(4.633304801144119e-07 -1.121655119466611e-07 0)
(4.531536549881635e-07 -1.07338660225165e-07 0)
(4.485527180614141e-07 -1.061873931068568e-07 0)
(4.480147595199372e-07 -1.073384611999242e-07 0)
(4.505636934204142e-07 -1.100641119449702e-07 0)
(4.555686262211025e-07 -1.139145012255881e-07 0)
(4.624501429346925e-07 -1.183998723235195e-07 0)
(4.709142661944338e-07 -1.23511750398535e-07 0)
(4.80410942303499e-07 -1.286902807647715e-07 0)
(7.594147455813779e-07 -4.193238973682657e-09 0)
(7.734103991421331e-07 -4.374814202248166e-09 0)
(7.881944607817362e-07 -4.528227122365968e-09 0)
(8.036996087065228e-07 -4.661134922793822e-09 0)
(8.198577477878233e-07 -4.777421232365558e-09 0)
(8.366509640826587e-07 -4.87168737359925e-09 0)
(8.539881789538978e-07 -4.923273974827591e-09 0)
(8.717922430750058e-07 -4.96555198856951e-09 0)
(8.900752452890953e-07 -5.023342966516912e-09 0)
(9.088179708423945e-07 -5.067229824793319e-09 0)
(9.279507609809999e-07 -5.078850656410519e-09 0)
(9.474334031991876e-07 -5.060671899937671e-09 0)
(9.672341102776471e-07 -5.01872779482631e-09 0)
(9.873227828811681e-07 -4.963781609426411e-09 0)
(1.007674491035132e-06 -4.898925860210957e-09 0)
(1.028265111412419e-06 -4.811704504956056e-09 0)
(1.04906102598136e-06 -4.687484218640727e-09 0)
(1.070034449122696e-06 -4.518381613201441e-09 0)
(1.091134095235622e-06 -4.309169677899112e-09 0)
(1.112328161814664e-06 -4.063850130724851e-09 0)
(7.524231195463372e-07 -1.281634888311733e-08 0)
(7.669684194476167e-07 -1.333358859556266e-08 0)
(7.822454796329128e-07 -1.377412567402079e-08 0)
(7.982127848501507e-07 -1.414238648085158e-08 0)
(8.147923398066463e-07 -1.442047635129113e-08 0)
(8.319314936722887e-07 -1.46582449333371e-08 0)
(8.495960819052356e-07 -1.486281889854533e-08 0)
(8.677411581130527e-07 -1.504656816406918e-08 0)
(8.863438880907262e-07 -1.519347511703855e-08 0)
(9.053527253109431e-07 -1.525673507977625e-08 0)
(9.247221284516301e-07 -1.525206233434042e-08 0)
(9.444407498765965e-07 -1.520808881863202e-08 0)
(9.64484749298946e-07 -1.512032252299634e-08 0)
(9.84814408353073e-07 -1.497482181490462e-08 0)
(1.005394387263075e-06 -1.475847183734821e-08 0)
(1.026199609964984e-06 -1.445843193168752e-08 0)
(1.047197945837234e-06 -1.406122603414962e-08 0)
(1.068352636621988e-06 -1.355711108226716e-08 0)
(1.089638020276478e-06 -1.294621024388346e-08 0)
(1.110969998171001e-06 -1.222437153091529e-08 0)
(7.387753799313372e-07 -2.212158745032046e-08 0)
(7.544421588679382e-07 -2.286638532961124e-08 0)
(7.707088069198946e-07 -2.346955261668434e-08 0)
(7.874982410262222e-07 -2.399539966904959e-08 0)
(8.048455896499946e-07 -2.442189037393542e-08 0)
(8.227294078595769e-07 -2.480087055045924e-08 0)
(8.410887806793739e-07 -2.51140323642982e-08 0)
(8.598381485332741e-07 -2.536143869292099e-08 0)
(8.789893806548892e-07 -2.553345064071177e-08 0)
(8.98504007335305e-07 -2.560376505472903e-08 0)
(9.183623693359444e-07 -2.560585315032441e-08 0)
(9.385486403728457e-07 -2.555546572814864e-08 0)
(9.590207265806094e-07 -2.541830152426031e-08 0)
(9.797371612318945e-07 -2.516419785449025e-08 0)
(1.000679195074586e-06 -2.478468134096358e-08 0)
(1.021847912867402e-06 -2.427330455794449e-08 0)
(1.043209807002345e-06 -2.36109471618762e-08 0)
(1.064743911171636e-06 -2.278333613821997e-08 0)
(1.08640467149567e-06 -2.178334128951177e-08 0)
(1.108127298978936e-06 -2.059247703971858e-08 0)
(7.188155892275064e-07 -3.245955643227684e-08 0)
(7.360169966374866e-07 -3.323784337456492e-08 0)
(7.537031907958659e-07 -3.384688408215631e-08 0)
(7.717776601030418e-07 -3.441498796401424e-08 0)
(7.90311595916775e-07 -3.490502231189644e-08 0)
(8.092407087864001e-07 -3.535677126079129e-08 0)
(8.285603988934592e-07 -3.571642077749191e-08 0)
(8.482008249680424e-07 -3.599728018246273e-08 0)
(8.682152804351474e-07 -3.618545730189579e-08 0)
(8.885452811734438e-07 -3.626017628414563e-08 0)
(9.091573568636277e-07 -3.624647305696652e-08 0)
(9.300308580404598e-07 -3.614168239301677e-08 0)
(9.511368461788825e-07 -3.590569199351423e-08 0)
(9.724556099941433e-07 -3.551826771889681e-08 0)
(9.939782193365393e-07 -3.498479207491203e-08 0)
(1.015702294864419e-06 -3.428096441679118e-08 0)
(1.037592829364248e-06 -3.338290092229177e-08 0)
(1.059649642143873e-06 -3.225895342951934e-08 0)
(1.081787180618643e-06 -3.08875220779118e-08 0)
(1.104017892498259e-06 -2.927454180813728e-08 0)
(6.931224860543153e-07 -4.410764460218928e-08 0)
(7.123299301874648e-07 -4.468737188867224e-08 0)
(7.318454736852854e-07 -4.51526513619384e-08 0)
(7.515068504820932e-07 -4.565970416978218e-08 0)
(7.715168429591841e-07 -4.610180051557851e-08 0)
(7.917904957965346e-07 -4.652855168640271e-08 0)
(8.123667218236052e-07 -4.685492677053979e-08 0)
(8.331864426371632e-07 -4.712058285594046e-08 0)
(8.542679878747202e-07 -4.727794199741241e-08 0)
(8.755808108439722e-07 -4.730463387803025e-08 0)
(8.971285721958848e-07 -4.723326924917451e-08 0)
(9.189019945484976e-07 -4.70532514371153e-08 0)
(9.408698883061143e-07 -4.671483853338599e-08 0)
(9.630096603753064e-07 -4.619503079573434e-08 0)
(9.853245238472049e-07 -4.549926297293506e-08 0)
(1.007779516291163e-06 -4.459347215342511e-08 0)
(1.030388733022723e-06 -4.345603258398379e-08 0)
(1.053105729693109e-06 -4.20515993109949e-08 0)
(1.075930549309869e-06 -4.033302084548456e-08 0)
(1.098815057099957e-06 -3.834286318355522e-08 0)
(6.623289049750776e-07 -5.735021604143812e-08 0)
(6.838186733614889e-07 -5.744080421778183e-08 0)
(7.055214716427548e-07 -5.751956703049708e-08 0)
(7.271435867939252e-07 -5.779762848619788e-08 0)
(7.489772769465579e-07 -5.806596007741558e-08 0)
(7.709177980152258e-07 -5.837531282020297e-08 0)
(7.929539929423619e-07 -5.85820979097407e-08 0)
(8.151639190692252e-07 -5.873462779286638e-08 0)
(8.375432940929869e-07 -5.880117255529724e-08 0)
(8.600801279707509e-07 -5.875519268781949e-08 0)
(8.827863718904569e-07 -5.861365290777938e-08 0)
(9.056513721320413e-07 -5.834601066706809e-08 0)
(9.286453891569836e-07 -5.789066590407348e-08 0)
(9.517471130807694e-07 -5.722741663402718e-08 0)
(9.749811566817459e-07 -5.635469076617642e-08 0)
(9.983140690409813e-07 -5.524748176175452e-08 0)
(1.021791294388154e-06 -5.387525181806496e-08 0)
(1.045318943671475e-06 -5.221509854812061e-08 0)
(1.068978816020366e-06 -5.019784461438918e-08 0)
(1.092668665666439e-06 -4.785901349472641e-08 0)
(6.273160095806357e-07 -7.225683892209875e-08 0)
(6.513746150386288e-07 -7.158960918043975e-08 0)
(6.755309888216364e-07 -7.106501164336436e-08 0)
(6.993448590904056e-07 -7.092485842606317e-08 0)
(7.231554341397503e-07 -7.085402735930439e-08 0)
(7.469403068488531e-07 -7.088488705223289e-08 0)
(7.706691123162201e-07 -7.089897552336578e-08 0)
(7.944500503336218e-07 -7.088859011916479e-08 0)
(8.183106594974167e-07 -7.082681431420404e-08 0)
(8.422637353759214e-07 -7.068148291325852e-08 0)
(8.663078500985078e-07 -7.043785135541979e-08 0)
(8.904217179792018e-07 -7.004571685382142e-08 0)
(9.145899656507809e-07 -6.944305380460858e-08 0)
(9.388166072965731e-07 -6.862021952797541e-08 0)
(9.631262024597378e-07 -6.757166400537121e-08 0)
(9.875057366634982e-07 -6.628017193371338e-08 0)
(1.011998303492317e-06 -6.469945856894117e-08 0)
(1.036517135700733e-06 -6.280363231194654e-08 0)
(1.061123560852123e-06 -6.05144593534461e-08 0)
(1.08573782071732e-06 -5.785134157107229e-08 0)
(5.887443695722546e-07 -8.897642121964199e-08 0)
(6.154928337844531e-07 -8.715588378703705e-08 0)
(6.422874168853959e-07 -8.575428431829482e-08 0)
(6.684938510007643e-07 -8.496590818583962e-08 0)
(6.945478483809993e-07 -8.442186585192732e-08 0)
(7.203354018289981e-07 -8.406693984425709e-08 0)
(7.460015938950913e-07 -8.379926831735045e-08 0)
(7.715674056668449e-07 -8.356890591396464e-08 0)
(7.970846551073921e-07 -8.333078239753114e-08 0)
(8.225855942034976e-07 -8.303789658100188e-08 0)
(8.480763824281564e-07 -8.264797101781318e-08 0)
(8.735504325707221e-07 -8.210152807445413e-08 0)
(8.990135795942747e-07 -8.134412216120871e-08 0)
(9.245014603490721e-07 -8.03693416632588e-08 0)
(9.500341783228245e-07 -7.916527860480325e-08 0)
(9.756080176585834e-07 -7.770956325317777e-08 0)
(1.001235504048351e-06 -7.594227208610629e-08 0)
(1.026872186169141e-06 -7.382790403099178e-08 0)
(1.052547717313938e-06 -7.127523613964911e-08 0)
(1.078199370554676e-06 -6.829861392002054e-08 0)
(5.473033338873597e-07 -1.074085010747922e-07 0)
(5.768960941587235e-07 -1.042202807878909e-07 0)
(6.064918565049175e-07 -1.017959150445108e-07 0)
(6.352425173793461e-07 -1.001408712382521e-07 0)
(6.636754903712546e-07 -9.891807384653746e-08 0)
(6.916494693616834e-07 -9.802755348529362e-08 0)
(7.193521246810264e-07 -9.734334258535753e-08 0)
(7.468134480098651e-07 -9.678469109612823e-08 0)
(7.741078076456321e-07 -9.629152271675318e-08 0)
(8.01270145372444e-07 -9.578960807122335e-08 0)
(8.283163793068582e-07 -9.521438831406898e-08 0)
(8.552692360487462e-07 -9.450169924740942e-08 0)
(8.821587431908154e-07 -9.360050568532232e-08 0)
(9.090343108608347e-07 -9.249504344936062e-08 0)
(9.359084742565075e-07 -9.115949946109616e-08 0)
(9.627873850151394e-07 -8.955654982279758e-08 0)
(9.896696705060921e-07 -8.761409046113627e-08 0)
(1.016515109484643e-06 -8.528685035734337e-08 0)
(1.04337590252728e-06 -8.248570810254004e-08 0)
(1.070189545412222e-06 -7.921349781705439e-08 0)
(5.039737956034558e-07 -1.27494150611291e-07 0)
(5.372635548873979e-07 -1.219212010713e-07 0)
(5.699800089640481e-07 -1.181949667378653e-07 0)
(6.015200185812864e-07 -1.155508585148414e-07 0)
(6.323278496491347e-07 -1.136415727535123e-07 0)
(6.625410775685358e-07 -1.122088788669346e-07 0)
(6.92262515283499e-07 -1.110921796193612e-07 0)
(7.21607804620114e-07 -1.101870441805078e-07 0)
(7.506704960888399e-07 -1.09420906868432e-07 0)
(7.794930771060222e-07 -1.086971134573789e-07 0)
(8.081070107237743e-07 -1.079391442902175e-07 0)
(8.365570440461598e-07 -1.070780890792754e-07 0)
(8.64890109424856e-07 -1.060574975067642e-07 0)
(8.931587511664775e-07 -1.048478137714367e-07 0)
(9.213707933579629e-07 -1.034094042530286e-07 0)
(9.495466072738697e-07 -1.016889489893723e-07 0)
(9.776954440006638e-07 -9.96122718066973e-08 0)
(1.005781360908232e-06 -9.710158289060698e-08 0)
(1.033870102754467e-06 -9.408875225138535e-08 0)
(1.061917351310125e-06 -9.053664927712872e-08 0)
(4.686227136833361e-07 -1.500710243074355e-07 0)
(5.056020533376151e-07 -1.416045780787927e-07 0)
(5.410025368164819e-07 -1.36309417080055e-07 0)
(5.750969711623901e-07 -1.323227869094318e-07 0)
(6.080284144140511e-07 -1.294274319993586e-07 0)
(6.40105369749686e-07 -1.272204633813877e-07 0)
(6.714633882824641e-07 -1.254896508713898e-07 0)
(7.022866653866227e-07 -1.240968781647148e-07 0)
(7.326826880047138e-07 -1.229272019232607e-07 0)
(7.627143174852616e-07 -1.218585679585682e-07 0)
(7.924441970351617e-07 -1.208074691659005e-07 0)
(8.219386595127726e-07 -1.197032022012419e-07 0)
(8.512556189950337e-07 -1.184789430540648e-07 0)
(8.804475306455337e-07 -1.170896684874437e-07 0)
(9.09515608062924e-07 -1.154884555614408e-07 0)
(9.385004283571882e-07 -1.135998609094956e-07 0)
(9.674019080534312e-07 -1.113693566816278e-07 0)
(9.9624004382718e-07 -1.086760185517567e-07 0)
(1.025055090235049e-06 -1.054715388427712e-07 0)
(1.053812492438086e-06 -1.016595354999884e-07 0)
(4.501518050811229e-07 -1.701611062766918e-07 0)
(4.876788527387315e-07 -1.612508188603581e-07 0)
(5.235622903515898e-07 -1.548856928813386e-07 0)
(5.584779852216447e-07 -1.499022784702481e-07 0)
(5.923295900619362e-07 -1.461000744091406e-07 0)
(6.25306989038482e-07 -1.431130688024332e-07 0)
(6.57542769312861e-07 -1.407183829553578e-07 0)
(6.89179883539847e-07 -1.387559769841964e-07 0)
(7.203059897971868e-07 -1.370817369594593e-07 0)
(7.509928008703327e-07 -1.355680406192751e-07 0)
(7.813194007584469e-07 -1.341305367870523e-07 0)
(8.113574382380273e-07 -1.326915323996017e-07 0)
(8.411631515899731e-07 -1.311716600417508e-07 0)
(8.707837164231636e-07 -1.295146323556948e-07 0)
(9.002203769141971e-07 -1.276707705876445e-07 0)
(9.295422666246263e-07 -1.25542990822857e-07 0)
(9.587176219517342e-07 -1.231047009380518e-07 0)
(9.878172317405904e-07 -1.202083712675791e-07 0)
(1.016850639785753e-06 -1.168088219577484e-07 0)
(1.045783217216137e-06 -1.127711679563834e-07 0)
(4.360856257347636e-07 -1.884364967344899e-07 0)
(4.731368939829536e-07 -1.796295587970584e-07 0)
(5.091375851257914e-07 -1.728713744464351e-07 0)
(5.443732117224485e-07 -1.673415513175835e-07 0)
(5.787078846566913e-07 -1.629042129176365e-07 0)
(6.122347776994131e-07 -1.592854081039684e-07 0)
(6.450533247554079e-07 -1.562992019685262e-07 0)
(6.772475764759744e-07 -1.537881599000675e-07 0)
(7.088921629320677e-07 -1.516121444473553e-07 0)
(7.400613756835571e-07 -1.496504700924318e-07 0)
(7.708352962333308e-07 -1.478190182700103e-07 0)
(8.012812723038092e-07 -1.460333345964077e-07 0)
(8.314522705710479e-07 -1.442025694248658e-07 0)
(8.613924556699752e-07 -1.422651668598609e-07 0)
(8.911032968659229e-07 -1.401711457987881e-07 0)
(9.206712065424767e-07 -1.378070803672886e-07 0)
(9.500623074403377e-07 -1.351617867440055e-07 0)
(9.793558332817542e-07 -1.320819059058852e-07 0)
(1.008540219480507e-06 -1.285138868753743e-07 0)
(1.037622770904766e-06 -1.243135224821455e-07 0)
(4.242640411334111e-07 -2.062341823219283e-07 0)
(4.607982060682021e-07 -1.976254249285158e-07 0)
(4.965757620215956e-07 -1.906276669944889e-07 0)
(5.318275545310489e-07 -1.846761620786822e-07 0)
(5.66315596278452e-07 -1.797153601051165e-07 0)
(6.001334484467346e-07 -1.755501118844536e-07 0)
(6.333006088476739e-07 -1.720277254401304e-07 0)
(6.65864988324543e-07 -1.690030508497869e-07 0)
(6.978875667543746e-07 -1.663494286886982e-07 0)
(7.294320479487081e-07 -1.639561880428653e-07 0)
(7.605664569171153e-07 -1.617421294373162e-07 0)
(7.91347366720136e-07 -1.596167190504566e-07 0)
(8.218252651617657e-07 -1.574791744754854e-07 0)
(8.520423845766162e-07 -1.552675519016856e-07 0)
(8.820036647783138e-07 -1.52927129622413e-07 0)
(9.117912579945816e-07 -1.503420818353558e-07 0)
(9.413820191237582e-07 -1.475081490976318e-07 0)
(9.708587467773439e-07 -1.44267519435221e-07 0)
(1.000186045487628e-06 -1.405649514884586e-07 0)
(1.02944690502495e-06 -1.36273563288663e-07 0)
(4.142576377552607e-07 -2.231845086525953e-07 0)
(4.502337779387247e-07 -2.148837813994092e-07 0)
(4.856603741227448e-07 -2.078679324325436e-07 0)
(5.207305694327983e-07 -2.016931055095582e-07 0)
(5.551926352107788e-07 -1.96376263128373e-07 0)
(5.891099679355491e-07 -1.91791635522909e-07 0)
(6.224423791710874e-07 -1.878164363764495e-07 0)
(6.552241230986994e-07 -1.843390873372412e-07 0)
(6.874998060736831e-07 -1.812529267769988e-07 0)
(7.193161847668858e-07 -1.784590502931254e-07 0)
(7.50724357399465e-07 -1.758817576467255e-07 0)
(7.817653378784137e-07 -1.734272260700132e-07 0)
(8.124873060858802e-07 -1.709892665522418e-07 0)
(8.429289457371974e-07 -1.685130424041595e-07 0)
(8.730991235289421e-07 -1.659354442123423e-07 0)
(9.030788573372693e-07 -1.631466501127705e-07 0)
(9.328397806793054e-07 -1.601405038111217e-07 0)
(9.624725320570955e-07 -1.567600116490321e-07 0)
(9.919448650805672e-07 -1.529591124862187e-07 0)
(1.021382909004076e-06 -1.486422473093067e-07 0)
(4.056146172833449e-07 -2.395664313308448e-07 0)
(4.410543616343676e-07 -2.315778784150355e-07 0)
(4.761148255038293e-07 -2.246226497006049e-07 0)
(5.108932917685385e-07 -2.183376182923887e-07 0)
(5.45226482515729e-07 -2.127842319481317e-07 0)
(5.791014147859957e-07 -2.078776646429518e-07 0)
(6.124695825373609e-07 -2.035325207529372e-07 0)
(6.453558723877666e-07 -1.996754174604714e-07 0)
(6.777838848669754e-07 -1.962140641592885e-07 0)
(7.097809478822471e-07 -1.930618412347859e-07 0)
(7.413819478076354e-07 -1.9015130932578e-07 0)
(7.726116251209477e-07 -1.873888175148845e-07 0)
(8.035167244667436e-07 -1.846668825136409e-07 0)
(8.3413125300227e-07 -1.81941698443437e-07 0)
(8.644633061993085e-07 -1.791392122127488e-07 0)
(8.945954037876299e-07 -1.761705178849615e-07 0)
(9.244976240338266e-07 -1.730132812744737e-07 0)
(9.542593286378276e-07 -1.695219075063306e-07 0)
(9.838833827453421e-07 -1.656684016956543e-07 0)
(1.013458234807452e-06 -1.613710709210131e-07 0)
(3.981234134144165e-07 -2.554382505415122e-07 0)
(4.330631487682845e-07 -2.477639523714011e-07 0)
(4.67736257172932e-07 -2.409208519954626e-07 0)
(5.021971152540555e-07 -2.34609911286761e-07 0)
(5.363215710089619e-07 -2.289120847895632e-07 0)
(5.700579910517469e-07 -2.237662284272607e-07 0)
(6.03372117875142e-07 -2.191317401054644e-07 0)
(6.362735119536292e-07 -2.149650903142404e-07 0)
(6.687640544309456e-07 -2.111827394616726e-07 0)
(7.008553160107298e-07 -2.077128152721297e-07 0)
(7.325698352156234e-07 -2.044987632160466e-07 0)
(7.639177858300316e-07 -2.014503356467245e-07 0)
(7.949445133077761e-07 -1.984639721569099e-07 0)
(8.256779928059433e-07 -1.955118329763651e-07 0)
(8.561299972813495e-07 -1.925016327313608e-07 0)
(8.863743137449187e-07 -1.893727169764233e-07 0)
(9.163891444644256e-07 -1.860900393236271e-07 0)
(9.462631337934262e-07 -1.825236505250283e-07 0)
(9.760239736906828e-07 -1.78660721968255e-07 0)
(1.005686864499627e-06 -1.744020278250262e-07 0)
(3.915946301236369e-07 -2.708929242828757e-07 0)
(4.260978601805456e-07 -2.635110825257812e-07 0)
(4.603701402502105e-07 -2.568050043901742e-07 0)
(4.945057036751952e-07 -2.505200284440301e-07 0)
(5.28359233442977e-07 -2.447383403668945e-07 0)
(5.618992133773273e-07 -2.394226723539779e-07 0)
(5.950939739274167e-07 -2.34569563958065e-07 0)
(6.279360853843751e-07 -2.301543563346285e-07 0)
(6.604096982865973e-07 -2.260999158412956e-07 0)
(6.925186195032949e-07 -2.223518124615162e-07 0)
(7.242775207363238e-07 -2.188659999451596e-07 0)
(7.556852299584865e-07 -2.155570332276464e-07 0)
(7.867848937536582e-07 -2.123272659984783e-07 0)
(8.175940488972597e-07 -2.091691956878132e-07 0)
(8.481317762792648e-07 -2.059771244652098e-07 0)
(8.784629419633046e-07 -2.027094290454085e-07 0)
(9.085723921556091e-07 -1.993330029207513e-07 0)
(9.385520854423533e-07 -1.957296960677621e-07 0)
(9.68407234773832e-07 -1.918873728191028e-07 0)
(9.981546957558618e-07 -1.876847055398432e-07 0)
(3.858500953253769e-07 -2.859912960137654e-07 0)
(4.199392650314356e-07 -2.788761445073815e-07 0)
(4.538375548318286e-07 -2.723155933860453e-07 0)
(4.876335005499482e-07 -2.660840059287632e-07 0)
(5.21195840477972e-07 -2.602609852040311e-07 0)
(5.545157882743087e-07 -2.54832167615171e-07 0)
(5.875511306841159e-07 -2.498159825651484e-07 0)
(6.20284357860427e-07 -2.452017697476536e-07 0)
(6.526863592580918e-07 -2.409188458002369e-07 0)
(6.847606346820176e-07 -2.36930526928318e-07 0)
(7.165148315916499e-07 -2.332052553742985e-07 0)
(7.47940161199192e-07 -2.296642822661683e-07 0)
(7.790766467652684e-07 -2.262186135083738e-07 0)
(8.099314018619951e-07 -2.228771366576373e-07 0)
(8.40527667374768e-07 -2.195308723447164e-07 0)
(8.709261267872991e-07 -2.161572687410819e-07 0)
(9.011165534203134e-07 -2.127169448911685e-07 0)
(9.311846025689066e-07 -2.091061726554058e-07 0)
(9.610923032537761e-07 -2.052990597967328e-07 0)
(9.909469161446688e-07 -2.011920610988212e-07 0)
(3.807556640216529e-07 -3.007757626771673e-07 0)
(4.144393849040611e-07 -2.939086988297312e-07 0)
(4.479932540395625e-07 -2.874901328611529e-07 0)
(4.814499465423381e-07 -2.813246670086027e-07 0)
(5.147353114917547e-07 -2.754937632869661e-07 0)
(5.478310314473907e-07 -2.699934868615827e-07 0)
(5.806860254895979e-07 -2.648553767103719e-07 0)
(6.132824793622439e-07 -2.600822461475912e-07 0)
(6.45579547125755e-07 -2.556104386607828e-07 0)
(6.775855120547859e-07 -2.514177578880643e-07 0)
(7.09298415108921e-07 -2.474847022270767e-07 0)
(7.407075222651786e-07 -2.437394015231058e-07 0)
(7.718484459449228e-07 -2.401063542597329e-07 0)
(8.027231901737507e-07 -2.36605928481374e-07 0)
(8.333463471264004e-07 -2.331366445060031e-07 0)
(8.638002478534147e-07 -2.296753503365322e-07 0)
(8.94050547977952e-07 -2.262060430527947e-07 0)
(9.241591217402408e-07 -2.226091597071523e-07 0)