/*--------------------------------*- C++ -*----------------------------------*\
| =========                 |                                                 |
| \\      /  F ield         | foam-extend: Open Source CFD                    |
|  \\    /   O peration     | Version:     4.1                                |
|   \\  /    A nd           | Web:         http://www.foam-extend.org         |
|    \\/     M anipulation  |                                                 |
\*---------------------------------------------------------------------------*/
FoamFile
{
    version     2.0;
    format      ascii;
    class       vectorField;
    location    "1";
    object      solidsCellD_iteration13;
}
// * * * * * * * * * * * * * * * * * * * * * * * * * * * * * * * * * * * * * //


1000
(
(4.474990010081537e-07 -1.411874244557795e-07 0)
(4.269940049466981e-07 -1.338916714477666e-07 0)
(4.14877738535802e-07 -1.303548154525098e-07 0)
(4.08791329536436e-07 -1.301775720031396e-07 0)
(4.070395309508384e-07 -1.320784865389361e-07 0)
(4.084820474141285e-07 -1.355148176045327e-07 0)
(4.123138559422751e-07 -1.400120454224161e-07 0)
(4.177817811635549e-07 -1.453836017914008e-07 0)
(4.248811486952087e-07 -1.512337238419113e-07 0)
(4.321129090947962e-07 -1.573780368196331e-07 0)
(4.052590443181419e-07 -1.545044421406443e-07 0)
(3.834996184631296e-07 -1.506170289913315e-07 0)
(3.704743868479158e-07 -1.492822287384484e-07 0)
(3.636511774602454e-07 -1.506355684490546e-07 0)
(3.61166304096834e-07 -1.535957158829781e-07 0)
(3.61878391657941e-07 -1.577753231686882e-07 0)
(3.649570675970359e-07 -1.627661264447307e-07 0)
(3.696744497345682e-07 -1.685361904200753e-07 0)
(3.758969956432563e-07 -1.745607422813656e-07 0)
(3.82404088356672e-07 -1.811666906376215e-07 0)
(3.611957605233096e-07 -1.670737827873724e-07 0)
(3.389683960738993e-07 -1.669791409797501e-07 0)
(3.255041693151526e-07 -1.681047682551158e-07 0)
(3.182899758757065e-07 -1.710797772818578e-07 0)
(3.153995953726537e-07 -1.751155552983519e-07 0)
(3.156238085492089e-07 -1.800123664731079e-07 0)
(3.181622355177169e-07 -1.854964473508501e-07 0)
(3.22348516867417e-07 -1.915729038905801e-07 0)
(3.279717216981709e-07 -1.977756701212729e-07 0)
(3.340742823918949e-07 -2.044259229556841e-07 0)
(3.155584980401625e-07 -1.786920583656988e-07 0)
(2.939099612323553e-07 -1.825321487593255e-07 0)
(2.80656387649449e-07 -1.861944855913149e-07 0)
(2.733940876084334e-07 -1.908124323469371e-07 0)
(2.703282345947418e-07 -1.959286813282168e-07 0)
(2.702407451623165e-07 -2.01523633583193e-07 0)
(2.72289731922099e-07 -2.07460475093438e-07 0)
(2.759883962397253e-07 -2.138040817358235e-07 0)
(2.810142510676641e-07 -2.201871940078369e-07 0)
(2.866554267737895e-07 -2.269417323906478e-07 0)
(2.688666028345652e-07 -1.891135152552273e-07 0)
(2.485829190964218e-07 -1.968257368728939e-07 0)
(2.361028511936199e-07 -2.029577312857728e-07 0)
(2.292337280454138e-07 -2.091803137119399e-07 0)
(2.262225590522906e-07 -2.153392213673209e-07 0)
(2.25897308860465e-07 -2.216323928377698e-07 0)
(2.275426626525272e-07 -2.280197620129407e-07 0)
(2.307462121868789e-07 -2.346336817311178e-07 0)
(2.351814943376647e-07 -2.412354169948416e-07 0)
(2.402126762488479e-07 -2.481066739643936e-07 0)
(2.210810231941214e-07 -1.981849043923998e-07 0)
(2.031731986724903e-07 -2.094839888794082e-07 0)
(1.921277581249557e-07 -2.179292776455782e-07 0)
(1.859396162063002e-07 -2.256728719832392e-07 0)
(1.831286458888184e-07 -2.328074183520768e-07 0)
(1.826684210157921e-07 -2.397367916053508e-07 0)
(1.840065346593529e-07 -2.465332826757326e-07 0)
(1.86715255039965e-07 -2.533948502594465e-07 0)
(1.904745011285035e-07 -2.602181483049352e-07 0)
(1.947496811484733e-07 -2.672311154590483e-07 0)
(1.726793660042202e-07 -2.056421793402161e-07 0)
(1.578333701970717e-07 -2.20093473907702e-07 0)
(1.486535162237086e-07 -2.305815840751342e-07 0)
(1.43457774628629e-07 -2.396706973867318e-07 0)
(1.41067936595088e-07 -2.476517041538921e-07 0)
(1.40628862227956e-07 -2.551310817398347e-07 0)
(1.416793952325166e-07 -2.622851109486399e-07 0)
(1.438305078053773e-07 -2.693802025139563e-07 0)
(1.468153766188813e-07 -2.764120332739982e-07 0)
(1.502227142930023e-07 -2.835494411833501e-07 0)
(1.237343804935034e-07 -2.114042016932434e-07 0)
(1.125733732313778e-07 -2.284003881476867e-07 0)
(1.056924780446888e-07 -2.40490016472235e-07 0)
(1.018099177902181e-07 -2.506053489118152e-07 0)
(1.000229112679385e-07 -2.592835606607043e-07 0)
(9.967009308292654e-08 -2.672279221449129e-07 0)
(1.003982647372491e-07 -2.747107070654478e-07 0)
(1.019310222115645e-07 -2.819988689232055e-07 0)
(1.040866579682665e-07 -2.891992359861483e-07 0)
(1.065633219609423e-07 -2.964440359640477e-07 0)
(7.438301091040906e-08 -2.153202382375745e-07 0)
(6.747701847538591e-08 -2.340609860503528e-07 0)
(6.326173820908692e-08 -2.472548856268088e-07 0)
(6.084303443343363e-08 -2.581425660257801e-07 0)
(5.968826775391405e-08 -2.673121958403203e-07 0)
(5.943080339671209e-08 -2.755498564648064e-07 0)
(5.988688514020361e-08 -2.832617378471544e-07 0)
(6.084651619957279e-08 -2.907277407184893e-07 0)
(6.214755673367997e-08 -2.980683978198519e-07 0)
(6.363961479661958e-08 -3.053909792062957e-07 0)
(2.48454715325018e-08 -2.172904780747527e-07 0)
(2.252601147369839e-08 -2.369515012989339e-07 0)
(2.104630098468001e-08 -2.507116702041444e-07 0)
(2.021544081384454e-08 -2.619669042595122e-07 0)
(1.98690485511044e-08 -2.713842858394348e-07 0)
(1.978310378770469e-08 -2.798061959471688e-07 0)
(1.988965740602824e-08 -2.876118530331459e-07 0)
(2.020215976510162e-08 -2.951317286069826e-07 0)
(2.065767192432225e-08 -3.025448886546373e-07 0)
(2.115785728609835e-08 -3.099259113032123e-07 0)
(6.891382624127235e-07 -6.334186107312014e-09 0)
(6.940379898093461e-07 -4.588765649364843e-09 0)
(6.980599731348493e-07 -3.542443265588486e-09 0)
(7.02875198231223e-07 -2.982215268208475e-09 0)
(7.087234633275318e-07 -2.736545636841804e-09 0)
(7.157705695107614e-07 -2.734706775713139e-09 0)
(7.241268736763901e-07 -2.896607227170928e-09 0)
(7.336561331060825e-07 -3.103771178258225e-09 0)
(7.444346693819346e-07 -3.434227561945838e-09 0)
(7.562705601791693e-07 -3.838205208060773e-09 0)
(6.842354239781518e-07 -1.90709506760348e-08 0)
(6.883206579705429e-07 -1.393137281760819e-08 0)
(6.918411626115444e-07 -1.080319066542532e-08 0)
(6.962769195943679e-07 -9.214878283644567e-09 0)
(7.018582483300687e-07 -8.591558842332841e-09 0)
(7.08694180269051e-07 -8.51121137806924e-09 0)
(7.169342657222461e-07 -8.951340134701558e-09 0)
(7.26373824780963e-07 -9.72092275824786e-09 0)
(7.370267194022312e-07 -1.072972332455535e-08 0)
(7.487882867180275e-07 -1.183091813034386e-08 0)
(6.74508326853601e-07 -3.186454141292553e-08 0)
(6.769708205102864e-07 -2.368554094300233e-08 0)
(6.794869450424354e-07 -1.871864001207059e-08 0)
(6.832507630590079e-07 -1.607503911315594e-08 0)
(6.883807207852134e-07 -1.506976229724943e-08 0)
(6.949265044751452e-07 -1.508615482504997e-08 0)
(7.028756192398323e-07 -1.587306700698384e-08 0)
(7.121547987314267e-07 -1.712342771945816e-08 0)
(7.225782470778817e-07 -1.874826038542112e-08 0)
(7.341846587841406e-07 -2.057724049584776e-08 0)
(6.600697329775572e-07 -4.489437469773641e-08 0)
(6.602251269652056e-07 -3.407639415940374e-08 0)
(6.612612043829731e-07 -2.762409219207863e-08 0)
(6.640800194306079e-07 -2.423295811085517e-08 0)
(6.685433552770122e-07 -2.294010898517239e-08 0)
(6.746743889969669e-07 -2.29963688440652e-08 0)
(6.822679778008793e-07 -2.406259109447453e-08 0)
(6.913143861431702e-07 -2.579471398985395e-08 0)
(7.014440711842717e-07 -2.802945043305575e-08 0)
(7.12858182077196e-07 -3.056801997859186e-08 0)
(6.410659025838684e-07 -5.814784895552583e-08 0)
(6.384314797276839e-07 -4.53234929537779e-08 0)
(6.376375578291671e-07 -3.774377870164762e-08 0)
(6.392563870297315e-07 -3.385316531698269e-08 0)
(6.429164343072957e-07 -3.243089537474458e-08 0)
(6.484962087767135e-07 -3.262005777838664e-08 0)
(6.556505007653936e-07 -3.400505045190246e-08 0)
(6.643707566226048e-07 -3.620642679334891e-08 0)
(6.741668173345738e-07 -3.900081767127436e-08 0)
(6.853856119008014e-07 -4.21680810876248e-08 0)
(6.17702702358497e-07 -7.168697558718989e-08 0)
(6.118993154353353e-07 -5.762401135987254e-08 0)
(6.09104123018187e-07 -4.936693054292617e-08 0)
(6.094005947763835e-07 -4.525582624046429e-08 0)
(6.121452982568578e-07 -4.38943919927152e-08 0)
(6.170834797323571e-07 -4.431500588615613e-08 0)
(6.237812566602275e-07 -4.604637550293379e-08 0)
(6.321361700926162e-07 -4.866391806470425e-08 0)
(6.415723756444566e-07 -5.197218901763785e-08 0)
(6.525544739691712e-07 -5.569856770872184e-08 0)
(5.90370335911882e-07 -8.548579905085591e-08 0)
(5.811639407714986e-07 -7.105000173777508e-08 0)
(5.762096574456651e-07 -6.264833979007042e-08 0)
(5.751143606972158e-07 -5.863599520560606e-08 0)
(5.769044402335723e-07 -5.749640567699286e-08 0)
(5.811894157186987e-07 -5.824236701809474e-08 0)
(5.874127202210301e-07 -6.034104805561879e-08 0)
(5.953879212615212e-07 -6.331394600700949e-08 0)
(6.044623722840742e-07 -6.705862719555733e-08 0)
(6.152078894400651e-07 -7.122734347434186e-08 0)
(5.59291508083789e-07 -9.943739219837465e-08 0)
(5.467392103516939e-07 -8.55644094120954e-08 0)
(5.396787321658582e-07 -7.758547196910771e-08 0)
(5.371853371535877e-07 -7.402671011460063e-08 0)
(5.380710124674783e-07 -7.330835872856354e-08 0)
(5.417044165463571e-07 -7.450361755685149e-08 0)
(5.474388860144715e-07 -7.703060073064066e-08 0)
(5.550208720636377e-07 -8.036966592761769e-08 0)
(5.637557244621769e-07 -8.450931198123937e-08 0)
(5.741904704335413e-07 -8.900131336770387e-08 0)
(5.248665483208155e-07 -1.134795893805556e-07 0)
(5.092018871112274e-07 -1.010155747328629e-07 0)
(5.001597267425414e-07 -9.405813396567581e-08 0)
(4.963152554957518e-07 -9.130086453445292e-08 0)
(4.962949552335616e-07 -9.122559039350156e-08 0)
(4.991973557610431e-07 -9.297393307532728e-08 0)
(5.043739010273286e-07 -9.597725620359595e-08 0)
(5.114797734164908e-07 -9.968753031614376e-08 0)
(5.198878633568461e-07 -1.041531806613917e-07 0)
(5.299402225388063e-07 -1.086993849810879e-07 0)
(4.874878172192399e-07 -1.274738351073719e-07 0)
(4.691736167455692e-07 -1.172206588005607e-07 0)
(4.584018702426434e-07 -1.117616451554946e-07 0)
(4.533592654387109e-07 -1.101666421996525e-07 0)
(4.524754654527368e-07 -1.109798577433472e-07 0)
(4.547434181172459e-07 -1.134491422960943e-07 0)
(4.595093861768716e-07 -1.171005385025161e-07 0)
(4.66163448228053e-07 -1.214286392189744e-07 0)
(4.744250265380029e-07 -1.263958314140172e-07 0)
(4.83700690741799e-07 -1.314678168120939e-07 0)
(7.691333024492738e-07 -4.178466105190192e-09 0)
(7.830597013007474e-07 -4.351614422309735e-09 0)
(7.977820614185459e-07 -4.499117720238594e-09 0)
(8.132340093170062e-07 -4.626943209985665e-09 0)
(8.293445065529252e-07 -4.739130701666361e-09 0)
(8.460929145611769e-07 -4.8293526980654e-09 0)
(8.63389287387413e-07 -4.876161344523046e-09 0)
(8.81158490797438e-07 -4.912600303780417e-09 0)
(8.994091557306948e-07 -4.962985368235139e-09 0)
(9.181178821344758e-07 -4.998651098348884e-09 0)
(9.372154341346491e-07 -5.001649112938177e-09 0)
(9.566620971550309e-07 -4.973811691132728e-09 0)
(9.76423535868411e-07 -4.920122975765345e-09 0)
(9.964670893810186e-07 -4.850881262344521e-09 0)
(1.016765566586389e-06 -4.769329387323006e-09 0)
(1.037292695466311e-06 -4.663344092396851e-09 0)
(1.05801173473981e-06 -4.518380374695663e-09 0)
(1.078890428071873e-06 -4.326156866558862e-09 0)
(1.099876821314472e-06 -4.091023862511089e-09 0)
(1.12092720404594e-06 -3.816016946855368e-09 0)
(7.619521377980069e-07 -1.278526784966535e-08 0)
(7.764469099091522e-07 -1.327480861401581e-08 0)
(7.916782093576588e-07 -1.369728985450973e-08 0)
(8.076044434456215e-07 -1.40499259367022e-08 0)
(8.241460348833281e-07 -1.431409024117976e-08 0)
(8.412505917647175e-07 -1.453865369521671e-08 0)
(8.588836495092125e-07 -1.472789201934882e-08 0)
(8.769991721845242e-07 -1.489280623795585e-08 0)
(8.955726258898345e-07 -1.501748605967783e-08 0)
(9.145505819833969e-07 -1.505689343578856e-08 0)
(9.338879334853535e-07 -1.502628956724682e-08 0)
(9.535722346176099e-07 -1.495253447803774e-08 0)
(9.735776722206929e-07 -1.482941973822788e-08 0)
(9.938631800960541e-07 -1.46421907659643e-08 0)
(1.014391908472285e-06 -1.437749293814132e-08 0)
(1.035136362133484e-06 -1.402195043289404e-08 0)
(1.056060522020102e-06 -1.356167177536138e-08 0)
(1.077122941218502e-06 -1.298616044559179e-08 0)
(1.09829907477337e-06 -1.229326019887941e-08 0)
(1.119490542171462e-06 -1.147870444460507e-08 0)
(7.47938832956614e-07 -2.211224848791433e-08 0)
(7.635876075504525e-07 -2.280482979490516e-08 0)
(7.798346745979339e-07 -2.337420764273335e-08 0)
(7.966080399627402e-07 -2.387153283259158e-08 0)
(8.139381178902372e-07 -2.427156245478581e-08 0)
(8.31801205699146e-07 -2.462428080598676e-08 0)
(8.501392612255826e-07 -2.490723850454146e-08 0)
(8.688682578960899e-07 -2.51202377298175e-08 0)
(8.879993312882919e-07 -2.525484653410959e-08 0)
(9.074904100215487e-07 -2.528552208944159e-08 0)
(9.273225186978492e-07 -2.524328118149691e-08 0)
(9.474785089160571e-07 -2.514120194651999e-08 0)
(9.679154937999162e-07 -2.494380035512291e-08 0)
(9.885915692763315e-07 -2.46207381096566e-08 0)
(1.009485927982651e-06 -2.416283263193844e-08 0)
(1.030595853784343e-06 -2.356157733088405e-08 0)
(1.051885879595214e-06 -2.279605894777319e-08 0)
(1.073330997688092e-06 -2.185020870597738e-08 0)
(1.094886719239865e-06 -2.07113579551207e-08 0)
(1.116474343332777e-06 -1.936254454575197e-08 0)
(7.274423678558396e-07 -3.253016695266371e-08 0)
(7.446770333906434e-07 -3.322760576772243e-08 0)
(7.623850241000893e-07 -3.378171486077813e-08 0)
(7.804772076662226e-07 -3.430179376724591e-08 0)
(7.990210766669131e-07 -3.474563654659662e-08 0)
(8.17952718569506e-07 -3.515198571956473e-08 0)
(8.37270922073546e-07 -3.546302572724361e-08 0)
(8.569057824506133e-07 -3.569259149749894e-08 0)
(8.769103658316141e-07 -3.582707563816017e-08 0)
(8.972247535879981e-07 -3.584371414015535e-08 0)
(9.178180304821382e-07 -3.576451864326475e-08 0)
(9.386683805907123e-07 -3.558493094270633e-08 0)
(9.597455865522025e-07 -3.526428760408971e-08 0)
(9.810293743504604e-07 -3.478121729882347e-08 0)
(1.002508985522538e-06 -3.413880182588362e-08 0)
(1.024178016706544e-06 -3.331069923155698e-08 0)
(1.046001269807176e-06 -3.227078920468497e-08 0)
(1.067974167524496e-06 -3.098355330757564e-08 0)
(1.090013403576513e-06 -2.941996805133283e-08 0)
(1.112118115314661e-06 -2.758755821284956e-08 0)
(7.010673921297215e-07 -4.433794214918e-08 0)
(7.203666385086254e-07 -4.480074187547161e-08 0)
(7.399525972737824e-07 -4.518030100931641e-08 0)
(7.596756658363479e-07 -4.561026661506093e-08 0)
(7.797319064972044e-07 -4.597905646668112e-08 0)
(8.000377112804716e-07 -4.633689652573916e-08 0)
(8.206346045433394e-07 -4.659244433687146e-08 0)
(8.414669521020254e-07 -4.678513314924666e-08 0)
(8.625531206017943e-07 -4.686760028144113e-08 0)
(8.838626294663306e-07 -4.68146438921051e-08 0)
(9.05400965990521e-07 -4.665579138885237e-08 0)
(9.271584907231204e-07 -4.637839267469423e-08 0)
(9.491038477219539e-07 -4.593166138306428e-08 0)
(9.712140071979177e-07 -4.529017771898736e-08 0)
(9.934905241050169e-07 -4.445559439294062e-08 0)
(1.015897210682366e-06 -4.339163020587081e-08 0)
(1.038444965560756e-06 -4.207406018956475e-08 0)
(1.061087627582397e-06 -4.046170595377876e-08 0)
(1.083821725961325e-06 -3.849822776614785e-08 0)
(1.10659083591763e-06 -3.622848564708645e-08 0)
(6.694668490583566e-07 -5.783712075588262e-08 0)
(6.91118239659373e-07 -5.776343251554922e-08 0)
(7.129475663006101e-07 -5.771401237173507e-08 0)
(7.34679058765164e-07 -5.78766538083102e-08 0)
(7.565960470527276e-07 -5.803643417746872e-08 0)
(7.786013200386672e-07 -5.824512158651113e-08 0)
(8.006859000103622e-07 -5.835180130661016e-08 0)
(8.229317230720839e-07 -5.840559358882289e-08 0)
(8.453344230595496e-07 -5.837326242238619e-08 0)
(8.678838931742501e-07 -5.822395550315028e-08 0)
(8.905928434214753e-07 -5.797099051655609e-08 0)
(9.134508176330535e-07 -5.758161055535566e-08 0)
(9.364297520224377e-07 -5.699271501961093e-08 0)
(9.595087342743502e-07 -5.618093962652673e-08 0)
(9.827096747897656e-07 -5.514086038541066e-08 0)
(1.006001008798422e-06 -5.384434530402296e-08 0)
(1.029422734133945e-06 -5.225568683922125e-08 0)
(1.052883590540884e-06 -5.034520182406953e-08 0)
(1.076460471753074e-06 -4.803233828704594e-08 0)
(1.100046063295836e-06 -4.535548567965825e-08 0)
(6.335514832418422e-07 -7.310108146440292e-08 0)
(6.578396303641634e-07 -7.221782045144463e-08 0)
(6.821787348479965e-07 -7.151485336794445e-08 0)
(7.061501891055367e-07 -7.12107442471066e-08 0)
(7.300865158736948e-07 -7.098764147711914e-08 0)
(7.539706622447315e-07 -7.087819156070636e-08 0)
(7.777804479147039e-07 -7.075737371055686e-08 0)
(8.016238524523749e-07 -7.061731304148017e-08 0)
(8.255290550075301e-07 -7.042660847336688e-08 0)
(8.49511280239593e-07 -7.014878793486681e-08 0)
(8.735714921964818e-07 -6.976564234500219e-08 0)
(8.976898675797665e-07 -6.922505059580705e-08 0)
(9.218530055471143e-07 -6.846290601083094e-08 0)
(9.460652721762139e-07 -6.746501169022644e-08 0)
(9.703494597217411e-07 -6.622138156954474e-08 0)
(9.946939888692985e-07 -6.471047596986082e-08 0)
(1.019136535989457e-06 -6.287776871806709e-08 0)
(1.043594681472025e-06 -6.06906729928698e-08 0)
(1.068126145569487e-06 -5.805920460294907e-08 0)
(1.092649369281587e-06 -5.500548877121276e-08 0)
(5.940128814587475e-07 -9.028322081413812e-08 0)
(6.210519438137124e-07 -8.818165613200958e-08 0)
(6.480866663193088e-07 -8.653572016124212e-08 0)
(6.744958329317625e-07 -8.552321385383932e-08 0)
(7.007192390948919e-07 -8.477787584376794e-08 0)
(7.266406484863597e-07 -8.42375127297013e-08 0)
(7.524182544496015e-07 -8.379530673586535e-08 0)
(7.780713184846273e-07 -8.33996467866444e-08 0)
(8.036554413488318e-07 -8.29992421537591e-08 0)
(8.292044122802666e-07 -8.254270223779217e-08 0)
(8.547276292393766e-07 -8.19842695303607e-08 0)
(8.802213738470209e-07 -8.126229450836833e-08 0)
(9.056931062721024e-07 -8.031905951320633e-08 0)
(9.311765884682961e-07 -7.914229556314105e-08 0)
(9.566919781494956e-07 -7.771479444756188e-08 0)
(9.822373911656751e-07 -7.600874374592486e-08 0)
(1.007820495536448e-06 -7.395545358225036e-08 0)
(1.033403905339441e-06 -7.151229523983122e-08 0)
(1.059013106764845e-06 -6.857579033616981e-08 0)
(1.084587912205935e-06 -6.516343194237987e-08 0)
(5.51595953252009e-07 -1.09276130438987e-07 0)
(5.815128848803742e-07 -1.057464187379637e-07 0)
(6.113860606742226e-07 -1.030143815842527e-07 0)
(6.403720853689723e-07 -1.010724826946811e-07 0)
(6.690053618231518e-07 -9.95894242239695e-08 0)
(6.971462684668322e-07 -9.845860988721751e-08 0)
(7.249893370404247e-07 -9.755126888006881e-08 0)
(7.525649098357978e-07 -9.678248072481903e-08 0)
(7.799511381856738e-07 -9.608702229089826e-08 0)
(8.071849778929907e-07 -9.53857212943528e-08 0)
(8.342850490644543e-07 -9.460987123925738e-08 0)
(8.612766634650296e-07 -9.36919802895812e-08 0)
(8.881910205024328e-07 -9.257587849827997e-08 0)
(9.150750264495472e-07 -9.123907188102762e-08 0)
(9.419433534472691e-07 -8.965034449496004e-08 0)
(9.688037222679137e-07 -8.776531498339501e-08 0)
(9.956507592281833e-07 -8.550382688727405e-08 0)
(1.022453330045025e-06 -8.28133964813912e-08 0)
(1.049258813927378e-06 -7.959270896020043e-08 0)
(1.076010382312558e-06 -7.584732507713056e-08 0)
(5.072924111817344e-07 -1.299909819709318e-07 0)
(5.408902702403353e-07 -1.240186880612365e-07 0)
(5.738858918510863e-07 -1.199082939039349e-07 0)
(6.056813787767963e-07 -1.169053171906442e-07 0)
(6.367131718356328e-07 -1.146742838197752e-07 0)
(6.6712340000733e-07 -1.129471616037368e-07 0)
(6.97014276744932e-07 -1.11559950064992e-07 0)
(7.265039147939024e-07 -1.104012713473981e-07 0)
(7.556877115824017e-07 -1.093934901233183e-07 0)
(7.846103747943151e-07 -1.084344353635494e-07 0)
(8.133052426050198e-07 -1.074426520791151e-07 0)
(8.418191298588996e-07 -1.063451736014871e-07 0)
(8.701994758339871e-07 -1.050793776681252e-07 0)
(8.984965190675772e-07 -1.03608423623986e-07 0)
(9.267224397054665e-07 -1.018870619824444e-07 0)
(9.548975203817771e-07 -9.98535277906735e-08 0)
(9.830296833589289e-07 -9.742642678503469e-08 0)
(1.011090858135377e-06 -9.452054551981583e-08 0)
(1.039142156459326e-06 -9.105713359506566e-08 0)
(1.067145060173922e-06 -8.70012631168497e-08 0)
(4.715259735978318e-07 -1.529381826247693e-07 0)
(5.086557581997994e-07 -1.441068501593773e-07 0)
(5.44245802914554e-07 -1.384146037917064e-07 0)
(5.785457586610763e-07 -1.340396883882798e-07 0)
(6.116825923486703e-07 -1.307869670631759e-07 0)
(6.439547616187625e-07 -1.282480816782663e-07 0)
(6.754895155003338e-07 -1.262086744693782e-07 0)
(7.06468959156997e-07 -1.245257333792521e-07 0)
(7.370001341306393e-07 -1.230795273932498e-07 0)
(7.671465964468195e-07 -1.217426570162725e-07 0)
(7.969713174063171e-07 -1.204263541363251e-07 0)
(8.265426525851774e-07 -1.190556118115273e-07 0)
(8.559187188080845e-07 -1.17557241071382e-07 0)
(8.851497537676415e-07 -1.158788943532724e-07 0)
(9.142436888521803e-07 -1.139680450044877e-07 0)
(9.432392188956056e-07 -1.117401987647516e-07 0)
(9.721380247859704e-07 -1.091350017561644e-07 0)
(1.000965065676433e-06 -1.060230624326158e-07 0)
(1.029757853253356e-06 -1.023466305044562e-07 0)
(1.058485305527489e-06 -9.801314732528278e-08 0)
(4.526872006139713e-07 -1.73160390449478e-07 0)
(4.903714500232091e-07 -1.63899032756374e-07 0)
(5.264318642640595e-07 -1.571644500496223e-07 0)
(5.615302183085724e-07 -1.518064717798923e-07 0)
(5.955606718089215e-07 -1.476446307721512e-07 0)
(6.287101693425597e-07 -1.443132974279333e-07 0)
(6.611039955647218e-07 -1.415916775318793e-07 0)
(6.928824092947208e-07 -1.393176245717999e-07 0)
(7.241324543079469e-07 -1.373434400895917e-07 0)
(7.549253423863933e-07 -1.355371747976543e-07 0)
(7.85339156450381e-07 -1.338101594335742e-07 0)
(8.154473579695046e-07 -1.320808518869187e-07 0)
(8.453059624398677e-07 -1.30263686823005e-07 0)
(8.749606807091093e-07 -1.282958216674653e-07 0)
(9.044203652825741e-07 -1.261222760102888e-07 0)
(9.337506639435028e-07 -1.236365029655577e-07 0)
(9.629239412006624e-07 -1.208080354854395e-07 0)
(9.920130044244219e-07 -1.174799329642435e-07 0)
(1.021027759604649e-06 -1.135978580077601e-07 0)
(1.049936285752148e-06 -1.090353753248671e-07 0)
(4.381739346582633e-07 -1.916524548933341e-07 0)
(4.754025183135862e-07 -1.824539495156966e-07 0)
(5.115792423293199e-07 -1.75312135375984e-07 0)
(5.469874138493306e-07 -1.694026432058559e-07 0)
(5.814862876925017e-07 -1.645982737494814e-07 0)
(6.151704221928048e-07 -1.606243954130787e-07 0)
(6.481323562733625e-07 -1.572971292921392e-07 0)
(6.804551701365017e-07 -1.544573305835317e-07 0)
(7.122133629069306e-07 -1.519623139189721e-07 0)
(7.43479922776559e-07 -1.496877615810328e-07 0)
(7.743335359304684e-07 -1.475462213599834e-07 0)
(8.048438754862307e-07 -1.454499645430158e-07 0)
(8.350631001665239e-07 -1.433020102477048e-07 0)
(8.650345905162702e-07 -1.410353120212289e-07 0)
(8.947675220004612e-07 -1.385953166008182e-07 0)
(9.243437105934085e-07 -1.358585373680403e-07 0)
(9.537348837166442e-07 -1.328111106080109e-07 0)
(9.83020036339022e-07 -1.292900003642591e-07 0)
(1.012190913109432e-06 -1.252341243003058e-07 0)
(1.041258282627417e-06 -1.205119379903563e-07 0)
(4.259055606835533e-07 -2.0967578547311e-07 0)
(4.626298421493876e-07 -2.006478352492419e-07 0)
(4.985846173678348e-07 -1.932493185679151e-07 0)
(5.340026730450387e-07 -1.869043589776273e-07 0)
(5.686442665177111e-07 -1.815628665965704e-07 0)
(6.026069355304716e-07 -1.770285280116631e-07 0)
(6.359042530185497e-07 -1.73148941228097e-07 0)
(6.685854755342432e-07 -1.697779561011175e-07 0)
(7.007114463439549e-07 -1.667869892924082e-07 0)
(7.323440901664057e-07 -1.640618344988738e-07 0)
(7.635502775067266e-07 -1.615187423133222e-07 0)
(7.943896420612514e-07 -1.590642904541785e-07 0)
(8.249111974659049e-07 -1.565913748700109e-07 0)
(8.551568833448989e-07 -1.54033775421807e-07 0)
(8.851388135819966e-07 -1.513327850472652e-07 0)
(9.149339067563859e-07 -1.483626142872062e-07 0)
(9.445264422666399e-07 -1.451168030056282e-07 0)
(9.739970732976311e-07 -1.414279604440603e-07 0)
(1.003316102141107e-06 -1.372367854790454e-07 0)
(1.032571148972379e-06 -1.324288968130685e-07 0)
(4.154879730497909e-07 -2.268378410934944e-07 0)
(4.516499165210815e-07 -2.180934335102474e-07 0)
(4.872492353070819e-07 -2.106575722706228e-07 0)
(5.224776435982523e-07 -2.040745627159853e-07 0)
(5.570846652978023e-07 -1.983638493516112e-07 0)
(5.911355927553959e-07 -1.933968463004452e-07 0)
(6.24586866432921e-07 -1.890493038291306e-07 0)
(6.57474652886134e-07 -1.852098905278357e-07 0)
(6.89843521812237e-07 -1.817700404401462e-07 0)
(7.217385097785863e-07 -1.786271829178599e-07 0)
(7.532101153125747e-07 -1.757039565251469e-07 0)
(7.84302907817205e-07 -1.729040178122324e-07 0)
(8.150629900435175e-07 -1.701145231685022e-07 0)
(8.45529530047066e-07 -1.672778023303626e-07 0)
(8.757175943479816e-07 -1.643268235120628e-07 0)
(9.057026793062907e-07 -1.611426720482352e-07 0)
(9.354659083174711e-07 -1.577175045826913e-07 0)
(9.650947704670783e-07 -1.538853949650745e-07 0)
(9.945643042386321e-07 -1.495995397274969e-07 0)
(1.024004315831296e-06 -1.447711801391818e-07 0)
(4.064701779080128e-07 -2.434212975617132e-07 0)
(4.420829779542672e-07 -2.34970977423045e-07 0)
(4.773051753134214e-07 -2.275770921288626e-07 0)
(5.122320318484914e-07 -2.208674969969091e-07 0)
(5.466998891242066e-07 -2.149055231647411e-07 0)
(5.806964833435003e-07 -2.096015111537123e-07 0)
(6.141722346100982e-07 -2.048686036890489e-07 0)
(6.471533801007664e-07 -2.006341754500735e-07 0)
(6.796638430590884e-07 -1.968036673171295e-07 0)
(7.117294460245703e-07 -1.932865304868236e-07 0)
(7.433850440132799e-07 -1.900145305743279e-07 0)
(7.746590440439385e-07 -1.868917456681115e-07 0)
(8.05595375997629e-07 -1.838037338192204e-07 0)
(8.362298555434649e-07 -1.807053910774775e-07 0)
(8.665757900697825e-07 -1.775184870470437e-07 0)
(8.967106184693646e-07 -1.741465170716976e-07 0)
(9.266149876764246e-07 -1.705659877368618e-07 0)
(9.563748083331742e-07 -1.666233697053089e-07 0)
(9.860008942048162e-07 -1.622903333247353e-07 0)
(1.015582422382961e-06 -1.574862695276148e-07 0)
(3.986379052510895e-07 -2.59471878649421e-07 0)
(4.337321059869213e-07 -2.513244630729843e-07 0)
(4.685511302800177e-07 -2.440283696019881e-07 0)
(5.031477706421769e-07 -2.372785558743217e-07 0)
(5.373938503995824e-07 -2.311576050788835e-07 0)
(5.71239362228053e-07 -2.255992162080597e-07 0)
(6.046488438638203e-07 -2.205622218743677e-07 0)
(6.376330422425082e-07 -2.160036730452471e-07 0)
(6.701947076794133e-07 -2.11837587762739e-07 0)
(7.023440256206858e-07 -2.079878079773085e-07 0)
(7.341038767990546e-07 -2.043978526103516e-07 0)
(7.654879974202795e-07 -2.009753892985941e-07 0)
(7.965381878310014e-07 -1.976100077725298e-07 0)
(8.272857996473169e-07 -1.942740135640967e-07 0)
(8.577469807438366e-07 -1.908705483598872e-07 0)
(8.879914293345728e-07 -1.873332024241756e-07 0)
(9.180078923570545e-07 -1.836257394472753e-07 0)
(9.478811714375646e-07 -1.796111925889168e-07 0)
(9.776465642660106e-07 -1.75273595635823e-07 0)
(1.007318558714967e-06 -1.705172339094663e-07 0)
(3.917964744646243e-07 -2.75083240545212e-07 0)
(4.264322723199705e-07 -2.672218667719853e-07 0)
(4.608313331336092e-07 -2.600514522408914e-07 0)
(4.950859825728702e-07 -2.53314716202981e-07 0)
(5.290456340139807e-07 -2.470954492136894e-07 0)
(5.6268073455092e-07 -2.413530979268692e-07 0)
(5.959572578901981e-07 -2.360837237517834e-07 0)
(6.288695492355657e-07 -2.31263031132682e-07 0)
(6.614028518997328e-07 -2.268115352546973e-07 0)
(6.935595486827157e-07 -2.226699148670224e-07 0)
(7.253547245785881e-07 -2.187950851062799e-07 0)
(7.567904678460862e-07 -2.15099625087356e-07 0)
(7.879059721416014e-07 -2.114797505791308e-07 0)
(8.187235801407887e-07 -2.079293309163278e-07 0)
(8.49266132772429e-07 -2.043377128198673e-07 0)
(8.795953851502422e-07 -2.006588822385485e-07 0)
(9.097057680209023e-07 -1.968582208757177e-07 0)
(9.39684960464171e-07 -1.928108791877555e-07 0)
(9.695449815562599e-07 -1.8849939668933e-07 0)
(9.993050938355743e-07 -1.838143303840276e-07 0)
(3.857645767384278e-07 -2.903155339360739e-07 0)
(4.199615839927789e-07 -2.827174381217742e-07 0)
(4.539642084879361e-07 -2.756835013085314e-07 0)
(4.878589747038604e-07 -2.689890584138201e-07 0)
(5.215103454313174e-07 -2.627158463779532e-07 0)
(5.549097896988944e-07 -2.568482326753043e-07 0)
(5.880125572151013e-07 -2.514035321641058e-07 0)
(6.208035920875951e-07 -2.463715664848897e-07 0)
(6.532542341797254e-07 -2.41679633526105e-07 0)
(6.853666009687483e-07 -2.372854636895708e-07 0)
(7.171486459472312e-07 -2.33159422891029e-07 0)
(7.485944725606457e-07 -2.292208313037058e-07 0)
(7.797401938197499e-07 -2.253757285204928e-07 0)
(8.105985374206226e-07 -2.216354972142575e-07 0)
(8.411960370405007e-07 -2.178854497882307e-07 0)
(8.715904232697919e-07 -2.140999750041023e-07 0)
(9.017803897916643e-07 -2.102365799440265e-07 0)
(9.31847414432691e-07 -2.0618575078993e-07 0)
(9.61759985638824e-07 -2.019191235424759e-07 0)
(9.916332170174013e-07 -1.973458645022863e-07 0)
(3.804032610300081e-07 -3.052116611294512e-07 0)
(4.141685904199305e-07 -2.978590844685826e-07 0)
(4.478024300035104e-07 -2.909603409441433e-07 0)
(4.813362620051244e-07 -2.843234030700329e-07 0)
(5.146923783712292e-07 -2.780326754964983e-07 0)
(5.478509551900912e-07 -2.720836613962245e-07 0)
(5.807589091725751e-07 -2.665064066792127e-07 0)
(6.134012629046929e-07 -2.613044233167499e-07 0)
(6.457360037991203e-07 -2.56412564974606e-07 0)
(6.777703999778607e-07 -2.518028103906002e-07 0)
(7.095027603521849e-07 -2.474584809652835e-07 0)
(7.409251587712263e-07 -2.433058322153662e-07 0)
(7.720694132945359e-07 -2.39265644704566e-07 0)
(8.029435006675939e-07 -2.353615040336751e-07 0)
(8.335636676713139e-07 -2.314860908488984e-07 0)
(8.640113439814543e-07 -2.276120827533042e-07 0)
(8.942590793929473e-07 -2.237219748212497e-07 0)
(9.243649848941658e-07 -2.196905306351932e-07 0)