/*--------------------------------*- C++ -*----------------------------------*\
| =========                 |                                                 |
| \\      /  F ield         | foam-extend: Open Source CFD                    |
|  \\    /   O peration     | Version:     4.1                                |
|   \\  /    A nd           | Web:         http://www.foam-extend.org         |
|    \\/     M anipulation  |                                                 |
\*---------------------------------------------------------------------------*/
FoamFile
{
    version     2.0;
    format      ascii;
    class       vectorField;
    location    "1";
    object      solidsCellD_iteration11;
}
// * * * * * * * * * * * * * * * * * * * * * * * * * * * * * * * * * * * * * //


1000
(
(4.350007362007579e-07 -1.27673761419575e-07 0)
(4.162686351882984e-07 -1.219126896444674e-07 0)
(4.054905351194988e-07 -1.196060103945117e-07 0)
(4.003803659562587e-07 -1.203005313528809e-07 0)
(3.99358339781219e-07 -1.228972390463191e-07 0)
(4.013749498097834e-07 -1.268865605574738e-07 0)
(4.0565293309075e-07 -1.318509986733696e-07 0)
(4.114738325464378e-07 -1.376482876121799e-07 0)
(4.188673790160926e-07 -1.438642166228259e-07 0)
(4.261201079276273e-07 -1.504017786721684e-07 0)
(3.941362775296361e-07 -1.397559890068356e-07 0)
(3.742407501328189e-07 -1.371717551711875e-07 0)
(3.625863574877935e-07 -1.369387353677012e-07 0)
(3.567552777990361e-07 -1.390929180763157e-07 0)
(3.549864058671491e-07 -1.4271449300016e-07 0)
(3.562303357134881e-07 -1.474300628786345e-07 0)
(3.597013605539533e-07 -1.528823095065364e-07 0)
(3.647023223722887e-07 -1.59066657483289e-07 0)
(3.711268033334656e-07 -1.65440375368791e-07 0)
(3.776671471052742e-07 -1.724388066543521e-07 0)
(3.514302670591803e-07 -1.511479737340051e-07 0)
(3.310895269780207e-07 -1.520986269635752e-07 0)
(3.189967255920398e-07 -1.541643853607192e-07 0)
(3.127573200245684e-07 -1.578394561169795e-07 0)
(3.105582888812426e-07 -1.624699535045739e-07 0)
(3.112770710412769e-07 -1.67858507322294e-07 0)
(3.141682121950827e-07 -1.737753060332634e-07 0)
(3.186065375517955e-07 -1.802330843314676e-07 0)
(3.244056234019387e-07 -1.867518689924768e-07 0)
(3.305490309919517e-07 -1.937487814392621e-07 0)
(3.071499415424632e-07 -1.616721603280898e-07 0)
(2.873356822854343e-07 -1.662779424543906e-07 0)
(2.754029003568042e-07 -1.707005676703879e-07 0)
(2.690635908921989e-07 -1.759017857416418e-07 0)
(2.666447488530586e-07 -1.815396401069269e-07 0)
(2.670147627591907e-07 -1.875760354765855e-07 0)
(2.693848732507015e-07 -1.939058967784006e-07 0)
(2.733147099707115e-07 -2.005912645214242e-07 0)
(2.785023785099142e-07 -2.0726155787672e-07 0)
(2.842036067093221e-07 -2.143157156058348e-07 0)
(2.617975395004811e-07 -1.711012495990264e-07 0)
(2.432311635560277e-07 -1.79295494308315e-07 0)
(2.319697773192083e-07 -1.860106381600199e-07 0)
(2.259428509210685e-07 -1.926978774468749e-07 0)
(2.235205032304211e-07 -1.992968213294675e-07 0)
(2.236070461378545e-07 -2.059737331702636e-07 0)
(2.2553837785541e-07 -2.127101734991262e-07 0)
(2.289437956485365e-07 -2.196260120737259e-07 0)
(2.335264935156402e-07 -2.264849266770776e-07 0)
(2.386262433318249e-07 -2.33617367254768e-07 0)
(2.153346879712131e-07 -1.793034578293542e-07 0)
(1.989457538287681e-07 -1.908132265527031e-07 0)
(1.889739858896372e-07 -1.996684169313298e-07 0)
(1.835243417126471e-07 -2.077654182662818e-07 0)
(1.812243124134015e-07 -2.152667639865835e-07 0)
(1.811134986263969e-07 -2.225260889757839e-07 0)
(1.826999551830357e-07 -2.296280004226352e-07 0)
(1.855862160102273e-07 -2.367575787596809e-07 0)
(1.89476896948215e-07 -2.438115784444961e-07 0)
(1.938205965365815e-07 -2.510505547941934e-07 0)
(1.682335948043109e-07 -1.860343941564689e-07 0)
(1.546460030757128e-07 -2.004617201439465e-07 0)
(1.463528854393396e-07 -2.112073160825197e-07 0)
(1.417613046033172e-07 -2.205458618275485e-07 0)
(1.397850755590391e-07 -2.288254121187678e-07 0)
(1.396316645236246e-07 -2.365901999886514e-07 0)
(1.408873335895057e-07 -2.440147425938585e-07 0)
(1.431841019093034e-07 -2.513511335552059e-07 0)
(1.462761169251976e-07 -2.585931860139025e-07 0)
(1.497440522235836e-07 -2.659276734314517e-07 0)
(1.205747208114782e-07 -1.912313489328572e-07 0)
(1.103494773194397e-07 -2.080123048217081e-07 0)
(1.041301353875555e-07 -2.202347432867219e-07 0)
(1.007009802700552e-07 -2.305173095583372e-07 0)
(9.922032994210803e-08 -2.39443381307978e-07 0)
(9.907923730705705e-08 -2.476338866183125e-07 0)
(9.995940091606917e-08 -2.55356022205972e-07 0)
(1.016012146055063e-07 -2.628625151037502e-07 0)
(1.038368227889694e-07 -2.702569770739186e-07 0)
(1.063599919096644e-07 -2.776754605398766e-07 0)
(7.249241710654943e-08 -1.947600906473146e-07 0)
(6.616801880341221e-08 -2.131529957276762e-07 0)
(6.236167913534485e-08 -2.263939434206014e-07 0)
(6.02190221404267e-08 -2.373932745361542e-07 0)
(5.925117374354499e-08 -2.467738593996048e-07 0)
(5.912591680503198e-08 -2.552291750996237e-07 0)
(5.967745964426866e-08 -2.631611099400635e-07 0)
(6.070387601546604e-08 -2.708326056200257e-07 0)
(6.205231325347386e-08 -2.783576924169248e-07 0)
(6.3573119650421e-08 -2.858380138253657e-07 0)
(2.421377725676623e-08 -1.965369577323578e-07 0)
(2.20895573779666e-08 -2.157821351995199e-07 0)
(2.074877959271877e-08 -2.295419492951625e-07 0)
(2.001451798648526e-08 -2.40877215694326e-07 0)
(1.973247303378636e-08 -2.504854935835602e-07 0)
(1.968894689072712e-08 -2.591103000385237e-07 0)
(1.982709157160009e-08 -2.671266136223915e-07 0)
(2.016324825441549e-08 -2.748452303193809e-07 0)
(2.063507069829626e-08 -2.8243717504024e-07 0)
(2.114453265986648e-08 -2.899669863071151e-07 0)
(6.675580695191763e-07 -5.716126833231589e-09 0)
(6.721047060886277e-07 -4.169864890931555e-09 0)
(6.761460308498731e-07 -3.262615652956435e-09 0)
(6.810825130835115e-07 -2.797693128407234e-09 0)
(6.871424744846346e-07 -2.618617837950297e-09 0)
(6.944213750127618e-07 -2.66269385223609e-09 0)
(7.030163148944851e-07 -2.855821293507069e-09 0)
(7.127653140117252e-07 -3.086571917889628e-09 0)
(7.237489251911696e-07 -3.436606926461172e-09 0)
(7.35774469754073e-07 -3.857206624297619e-09 0)
(6.628749822366936e-07 -1.72137097181974e-08 0)
(6.666721512441416e-07 -1.266104566008432e-08 0)
(6.702539265596701e-07 -9.946684433110996e-09 0)
(6.748380387838209e-07 -8.636277276189384e-09 0)
(6.806502919602215e-07 -8.205852617958288e-09 0)
(6.877257510145281e-07 -8.262596354626127e-09 0)
(6.962169145656317e-07 -8.801191165009423e-09 0)
(7.058862932271462e-07 -9.643137422378382e-09 0)
(7.167453948167015e-07 -1.070692156378383e-08 0)
(7.287078446723633e-07 -1.185609661219042e-08 0)
(6.535542518128468e-07 -2.875892398026746e-08 0)
(6.558648262006751e-07 -2.152623578058503e-08 0)
(6.585298538680941e-07 -1.72303155441288e-08 0)
(6.624980537657009e-07 -1.503612583995813e-08 0)
(6.678986682202409e-07 -1.434539820618361e-08 0)
(6.747116829979098e-07 -1.458640510465076e-08 0)
(6.82926519048501e-07 -1.553303629895214e-08 0)
(6.924449762939655e-07 -1.690303232088286e-08 0)
(7.030860339829395e-07 -1.861682988824665e-08 0)
(7.149119920381182e-07 -2.052156779631025e-08 0)
(6.39715342661469e-07 -4.052482230019427e-08 0)
(6.399142541212467e-07 -3.096913235522226e-08 0)
(6.412210127394177e-07 -2.541725994214366e-08 0)
(6.443280778858992e-07 -2.262958168850606e-08 0)
(6.491089427626481e-07 -2.175710676466701e-08 0)
(6.555397790039231e-07 -2.211687953528047e-08 0)
(6.634288507731624e-07 -2.339667526246866e-08 0)
(6.727399839792383e-07 -2.529026824979249e-08 0)
(6.831053009113437e-07 -2.765485630400112e-08 0)
(6.947702269617448e-07 -3.030124282062711e-08 0)
(6.214819435472425e-07 -5.249742483073896e-08 0)
(6.191371774489843e-07 -4.119347609912888e-08 0)
(6.187647048229605e-07 -3.47045244284902e-08 0)
(6.207699323669911e-07 -3.154884736648825e-08 0)
(6.248117176647907e-07 -3.063563896121145e-08 0)
(6.307380099965833e-07 -3.11916433379404e-08 0)
(6.38218019317395e-07 -3.284153758019678e-08 0)
(6.47228452846526e-07 -3.524719336049195e-08 0)
(6.572809658950537e-07 -3.821075587923119e-08 0)
(6.68792364778266e-07 -4.151419645038176e-08 0)
(5.990485118068064e-07 -6.473557995639721e-08 0)
(5.938048633124451e-07 -5.238170416094215e-08 0)
(5.916042698795747e-07 -4.535781333042591e-08 0)
(5.924024138481043e-07 -4.208241386096876e-08 0)
(5.956011993443884e-07 -4.13060533295118e-08 0)
(6.009376218751655e-07 -4.214992651102277e-08 0)
(6.080011586107617e-07 -4.418921563394876e-08 0)
(6.166800223141985e-07 -4.7043267187428e-08 0)
(6.264006501023206e-07 -5.05503995085005e-08 0)
(6.377270035462623e-07 -5.443806278096729e-08 0)
(5.727822535216316e-07 -7.721962659737859e-08 0)
(5.644205182914894e-07 -6.460636836728471e-08 0)
(5.602421404191186e-07 -5.753114905370581e-08 0)
(5.597719015627373e-07 -5.442561720366465e-08 0)
(5.620942401835776e-07 -5.392790836998293e-08 0)
(5.668317663169291e-07 -5.513946181157226e-08 0)
(5.734638356154274e-07 -5.757907261641606e-08 0)
(5.817993037072248e-07 -6.081474366671941e-08 0)
(5.911858186760873e-07 -6.478647679095639e-08 0)
(6.023335981329174e-07 -6.914196343074165e-08 0)
(5.42878061739094e-07 -8.984613157011299e-08 0)
(5.314505809115541e-07 -7.783291348572166e-08 0)
(5.25337578428076e-07 -7.122421682744128e-08 0)
(5.235877762051849e-07 -6.860739585188502e-08 0)
(5.250812514143678e-07 -6.856612097123016e-08 0)
(5.292220305760079e-07 -7.025479232270011e-08 0)
(5.354052630260625e-07 -7.314391361493634e-08 0)
(5.433923758567307e-07 -7.676276181843213e-08 0)
(5.524778474346607e-07 -8.115192185715067e-08 0)
(5.633798967844015e-07 -8.584814970047759e-08 0)
(5.097123146019019e-07 -1.025617799132114e-07 0)
(4.954306599691272e-07 -9.192164295238248e-08 0)
(4.875008274415434e-07 -8.632939935830572e-08 0)
(4.845054550717176e-07 -8.45179201084257e-08 0)
(4.851650375422818e-07 -8.513832343715043e-08 0)
(4.886254465681687e-07 -8.740102134582206e-08 0)
(4.942809183928283e-07 -9.078452788289446e-08 0)
(5.018241207177198e-07 -9.47871020487722e-08 0)
(5.106021035988038e-07 -9.950663076651294e-08 0)
(5.211517015678044e-07 -1.042599525571463e-07 0)
(4.736503897191169e-07 -1.152393941211709e-07 0)
(4.569340231818163e-07 -1.066982461799671e-07 0)
(4.474102765425803e-07 -1.025591546588663e-07 0)
(4.432948635975398e-07 -1.018906438923056e-07 0)
(4.431366217211396e-07 -1.03407689472932e-07 0)
(4.459928155927374e-07 -1.06410855575854e-07 0)
(4.512582471834662e-07 -1.104751969389637e-07 0)
(4.583882054232466e-07 -1.151312942140551e-07 0)
(4.670722267053591e-07 -1.204003739398424e-07 0)
(4.768183708394715e-07 -1.256956893246786e-07 0)
(7.487810387392058e-07 -4.207841446494028e-09 0)
(7.628504226398236e-07 -4.39843730099586e-09 0)
(7.777003532846743e-07 -4.558326924207542e-09 0)
(7.932623336466847e-07 -4.696755664137049e-09 0)
(8.094714929369806e-07 -4.817356194361554e-09 0)
(8.263124347650654e-07 -4.91582986979748e-09 0)
(8.436935475151429e-07 -4.972818193830944e-09 0)
(8.615355388926337e-07 -5.021653892687719e-09 0)
(8.798531654388134e-07 -5.087267997750919e-09 0)
(8.986319239858441e-07 -5.139741061602351e-09 0)
(9.178021691176464e-07 -5.160382139137615e-09 0)
(9.373227631743712e-07 -5.152321077889053e-09 0)
(9.571646413963181e-07 -5.122763430100256e-09 0)
(9.77300635095014e-07 -5.082845482563185e-09 0)
(9.977079434449664e-07 -5.035341411884052e-09 0)
(1.018364310392901e-06 -4.967523940990266e-09 0)
(1.039239503816407e-06 -4.864819823899945e-09 0)
(1.060310313257071e-06 -4.719710289664967e-09 0)
(1.081526344729873e-06 -4.537350015392438e-09 0)
(1.102867118464287e-06 -4.322915790548636e-09 0)
(7.419975390216402e-07 -1.284624159406234e-08 0)
(7.565961348931169e-07 -1.339320874898829e-08 0)
(7.719216717393657e-07 -1.38533071559063e-08 0)
(7.879322302764935e-07 -1.423845281200025e-08 0)
(8.045521607653756e-07 -1.453196713064784e-08 0)
(8.21728400244549e-07 -1.478410002631029e-08 0)
(8.394268155928464e-07 -1.500504577973389e-08 0)
(8.576035596649653e-07 -1.520860541103222e-08 0)
(8.762373349315615e-07 -1.537879410838655e-08 0)
(8.952791758824087e-07 -1.546744855725003e-08 0)
(9.146830814241617e-07 -1.549032847724945e-08 0)
(9.344381502643849e-07 -1.547757203312256e-08 0)
(9.545225124115768e-07 -1.542666017013227e-08 0)
(9.748979787652776e-07 -1.532463754600928e-08 0)
(9.955305802708013e-07 -1.515863096427249e-08 0)
(1.016397633051395e-06 -1.491641433287779e-08 0)
(1.03747162138815e-06 -1.458497247020518e-08 0)
(1.058720571581679e-06 -1.415519058951187e-08 0)
(1.080117503323137e-06 -1.362942501976583e-08 0)
(1.101593315255705e-06 -1.300407374333825e-08 0)
(7.287505569346221e-07 -2.2125660182891e-08 0)
(7.444344151934678e-07 -2.292626461703575e-08 0)
(7.607213009561055e-07 -2.356606445467252e-08 0)
(7.775277686475498e-07 -2.412261820297421e-08 0)
(7.948931639671355e-07 -2.457791495346206e-08 0)
(8.127983353874283e-07 -2.498512922089774e-08 0)
(8.31179765322262e-07 -2.53306659806029e-08 0)
(8.499506510301904e-07 -2.561486553180321e-08 0)
(8.691228397549814e-07 -2.582661088776063e-08 0)
(8.886624187100194e-07 -2.59390552772318e-08 0)
(9.085488131394778e-07 -2.598776540448757e-08 0)
(9.287669352227375e-07 -2.599118430967657e-08 0)
(9.492756962636271e-07 -2.591667043097263e-08 0)
(9.700341784520728e-07 -2.573440365108195e-08 0)
(9.910255602773193e-07 -2.543652631360936e-08 0)
(1.012254678440615e-06 -2.501868255006229e-08 0)
(1.033690011321844e-06 -2.446368145066211e-08 0)
(1.055314450302395e-06 -2.375921972461796e-08 0)
(1.077081488881022e-06 -2.290376793091782e-08 0)
(1.098940837891027e-06 -2.187784960298212e-08 0)
(7.093783131043281e-07 -3.237555530971177e-08 0)
(7.265411327986505e-07 -3.324002368701158e-08 0)
(7.442029019214769e-07 -3.39083845557613e-08 0)
(7.62257541304588e-07 -3.452813876186401e-08 0)
(7.807795846704816e-07 -3.506808835643132e-08 0)
(7.997049467910387e-07 -3.556850348770473e-08 0)
(8.19025221663563e-07 -3.598039284970514e-08 0)
(8.38671205566287e-07 -3.631614282783854e-08 0)
(8.586953377279945e-07 -3.656136195590996e-08 0)
(8.790412558147883e-07 -3.669768022321209e-08 0)
(8.996727303090611e-07 -3.675299038579166e-08 0)
(9.205700612663671e-07 -3.672646666278259e-08 0)
(9.417057992168328e-07 -3.657884129587933e-08 0)
(9.630605592255845e-07 -3.629109775729801e-08 0)
(9.84627137228983e-07 -3.587082916181697e-08 0)
(1.006407446052545e-06 -3.529593257135218e-08 0)
(1.028366316203871e-06 -3.454490095008936e-08 0)
(1.050507829399605e-06 -3.359057306201819e-08 0)
(1.0727449914261e-06 -3.241904973713316e-08 0)
(1.095102329748446e-06 -3.103505706701013e-08 0)
(6.844312793644049e-07 -4.385063910742071e-08 0)
(7.035357599055638e-07 -4.455509505310077e-08 0)
(7.229745436831323e-07 -4.511222867853052e-08 0)
(7.425690990425193e-07 -4.570169966560363e-08 0)
(7.625277456207701e-07 -4.622260639217265e-08 0)
(7.82765544702133e-07 -4.672293904104239e-08 0)
(8.03318397526993e-07 -4.712540360880159e-08 0)
(8.241234465564653e-07 -4.746902452185609e-08 0)
(8.451991351201289e-07 -4.770624176495518e-08 0)
(8.665150248607651e-07 -4.781778973061315e-08 0)
(8.880720363281759e-07 -4.783887144733853e-08 0)
(9.098610013901809e-07 -4.776080634751575e-08 0)
(9.318512496967159e-07 -4.75353767790298e-08 0)
(9.540206588636753e-07 -4.714230707091686e-08 0)
(9.763739281876561e-07 -4.659074365125993e-08 0)
(9.988773992902517e-07 -4.584897543812358e-08 0)
(1.02154834899268e-06 -4.489804915946643e-08 0)
(1.044339408539634e-06 -4.370913553327705e-08 0)
(1.067255147337976e-06 -4.224491211104641e-08 0)
(1.090254598093427e-06 -4.054559200200832e-08 0)
(6.545218460899478e-07 -5.68163019916904e-08 0)
(6.758326874597456e-07 -5.708270954871164e-08 0)
(6.973976791858203e-07 -5.729821416477793e-08 0)
(7.189008635674712e-07 -5.769912367857005e-08 0)
(7.406426943133093e-07 -5.808380910423171e-08 0)
(7.625115817126084e-07 -5.850052712074655e-08 0)
(7.84495537310616e-07 -5.881519888749994e-08 0)
(8.066659643832359e-07 -5.90736948778783e-08 0)
(8.290190034211479e-07 -5.924572564011876e-08 0)
(8.515410209598729e-07 -5.930956110160927e-08 0)
(8.742426723658234e-07 -5.928546595506073e-08 0)
(8.971130272556517e-07 -5.914514307211438e-08 0)
(9.201207185091804e-07 -5.882914627319866e-08 0)
(9.432441963312033e-07 -5.832071947271959e-08 0)
(9.66510732476071e-07 -5.762189492095074e-08 0)
(9.89884353230629e-07 -5.671075993840712e-08 0)
(1.013416297695199e-06 -5.556238974476136e-08 0)
(1.037009711658555e-06 -5.416109047517838e-08 0)
(1.060751342553318e-06 -5.244997472091544e-08 0)
(1.08454349362254e-06 -5.046169042885586e-08 0)
(6.204969660472811e-07 -7.13393981103822e-08 0)
(6.443025827530514e-07 -7.090359554888906e-08 0)
(6.682606800523878e-07 -7.056868008639427e-08 0)
(6.919033345223642e-07 -7.060311097786264e-08 0)
(7.155770984664419e-07 -7.069563010947293e-08 0)
(7.392536010517044e-07 -7.087671315543221e-08 0)
(7.628948896966339e-07 -7.103568376525531e-08 0)
(7.866079561674743e-07 -7.116406525630204e-08 0)
(8.104193721734889e-07 -7.123933122834494e-08 0)
(8.343390346294387e-07 -7.123421209458191e-08 0)
(8.583630149899728e-07 -7.113731601784387e-08 0)
(8.824688836078198e-07 -7.090051846270384e-08 0)
(9.066393016676144e-07 -7.046446077390294e-08 0)
(9.308778623462129e-07 -6.982413598051304e-08 0)
(9.552106323574261e-07 -6.897806801718984e-08 0)
(9.796226951441618e-07 -6.791331424507765e-08 0)
(1.004163087257722e-06 -6.659270683339542e-08 0)
(1.028739974520531e-06 -6.49973081854835e-08 0)
(1.05341872829475e-06 -6.306139530921307e-08 0)
(1.078120165721062e-06 -6.080192525575528e-08 0)
(5.829854498443374e-07 -8.756240883066676e-08 0)
(6.094156313395715e-07 -8.604466364085352e-08 0)
(6.359508481934529e-07 -8.490282706578367e-08 0)
(6.61938020533124e-07 -8.435317461312142e-08 0)
(6.878082056763994e-07 -8.402401110982866e-08 0)
(7.134516139272281e-07 -8.386733541250461e-08 0)
(7.389969048148058e-07 -8.378631844618508e-08 0)
(7.644673715220184e-07 -8.373221388704835e-08 0)
(7.899107188791882e-07 -8.366627375259292e-08 0)
(8.153570610184061e-07 -8.354631542032893e-08 0)
(8.408092873984549e-07 -8.333353378473444e-08 0)
(8.662579390406266e-07 -8.297081380643308e-08 0)
(8.917071905100055e-07 -8.24075118149909e-08 0)
(9.171947514936616e-07 -8.1643063450281e-08 0)
(9.42740094158495e-07 -8.06705183694346e-08 0)
(9.683374648939038e-07 -7.947302465318428e-08 0)
(9.940052245393e-07 -7.800033715868469e-08 0)
(1.019690007403849e-06 -7.622423963497542e-08 0)
(1.045427072286372e-06 -7.406644770339343e-08 0)
(1.071149493156716e-06 -7.153857391531341e-08 0)
(5.426153251408733e-07 -1.053944653017857e-07 0)
(5.718564863494584e-07 -1.025728978849899e-07 0)
(6.011543368900891e-07 -1.004749381327824e-07 0)
(6.296520827715876e-07 -9.912585831017393e-08 0)
(6.578689627071587e-07 -9.818119797224801e-08 0)
(6.856636948470399e-07 -9.754741251091313e-08 0)
(7.132144650503839e-07 -9.710132419220578e-08 0)
(7.405512071155637e-07 -9.676617663211354e-08 0)
(7.677437578985178e-07 -9.648714963066029e-08 0)
(7.948248316203661e-07 -9.619537614137202e-08 0)
(8.218079485873781e-07 -9.583063839102129e-08 0)
(8.487131194088532e-07 -9.53323583588832e-08 0)
(8.755691096242902e-07 -9.46552037474461e-08 0)
(9.024281168936994e-07 -9.379011201208022e-08 0)
(9.292997322094415e-07 -9.271637478319033e-08 0)
(9.561886329134402e-07 -9.140400915583556e-08 0)
(9.830986776779338e-07 -8.978971693228715e-08 0)
(1.009978707077435e-06 -8.783542797555402e-08 0)
(1.036886744395705e-06 -8.546462544836606e-08 0)
(1.063753421563009e-06 -8.267821129451326e-08 0)
(5.003551687309076e-07 -1.248101813147972e-07 0)
(5.333114805786483e-07 -1.196708142334961e-07 0)
(5.657286994376626e-07 -1.163538291158681e-07 0)
(5.969960487427741e-07 -1.140914369901387e-07 0)
(6.275648469749902e-07 -1.125236878730795e-07 0)
(6.575667604665713e-07 -1.114030127424548e-07 0)
(6.871053716065381e-07 -1.105728298202273e-07 0)
(7.162933009037212e-07 -1.099356320146939e-07 0)
(7.452215413896752e-07 -1.094238142294116e-07 0)
(7.739305972216937e-07 -1.089467425805545e-07 0)
(8.024504932907768e-07 -1.08433078600127e-07 0)
(8.308236674943021e-07 -1.078181953866445e-07 0)
(8.590965990673892e-07 -1.070523700532184e-07 0)
(8.873244812535443e-07 -1.061133178855794e-07 0)
(9.15509891018547e-07 -1.049668007772434e-07 0)
(9.436737916264447e-07 -1.035683976687069e-07 0)
(9.71827254316804e-07 -1.018515312726104e-07 0)
(9.999255762451466e-07 -9.974602032060818e-08 0)
(1.028039672995821e-06 -9.719417566806949e-08 0)
(1.056118796950997e-06 -9.415820755358971e-08 0)
(4.654640445619281e-07 -1.469955503037099e-07 0)
(5.022893365471933e-07 -1.389240805279595e-07 0)
(5.374893586297255e-07 -1.340524415342133e-07 0)
(5.713625129207317e-07 -1.304796470891958e-07 0)
(6.040719524904498e-07 -1.279630238007358e-07 0)
(6.359367393766765e-07 -1.261067658442326e-07 0)
(6.671019015713605e-07 -1.247013933896169e-07 0)
(6.977529661851677e-07 -1.236136519521115e-07 0)
(7.279975162741746e-07 -1.227334844476582e-07 0)
(7.578982326089794e-07 -1.219448546864427e-07 0)
(7.875176979757695e-07 -1.211697086326661e-07 0)
(8.169196611144628e-07 -1.2034179618205e-07 0)
(8.461620897399718e-07 -1.194012293327677e-07 0)
(8.753000599268571e-07 -1.183103866807642e-07 0)
(9.043269763187269e-07 -1.170277493887619e-07 0)
(9.332862393549731e-07 -1.154875706211579e-07 0)
(9.62175982266424e-07 -1.136409198001918e-07 0)
(9.910105715771814e-07 -1.113762146517911e-07 0)
(1.019833566519534e-06 -1.086539128702951e-07 0)
(1.048607001664745e-06 -1.053758904139821e-07 0)
(4.473942021278036e-07 -1.669454019316275e-07 0)
(4.847541394417291e-07 -1.584120447640943e-07 0)
(5.204512503960652e-07 -1.524391762457659e-07 0)
(5.55170838870265e-07 -1.478537442843999e-07 0)
(5.888283929089966e-07 -1.444320116475139e-07 0)
(6.216180102732319e-07 -1.418083180274948e-07 0)
(6.536799043339124e-07 -1.397575812271948e-07 0)
(6.851596255987943e-07 -1.381217584936682e-07 0)
(7.161454555657156e-07 -1.367606961611187e-07 0)
(7.467101908568152e-07 -1.3555166019409e-07 0)
(7.769340281738192e-07 -1.34414615824109e-07 0)
(8.068861796966804e-07 -1.332758601453127e-07 0)
(8.366235990653943e-07 -1.320628625983509e-07 0)
(8.661952668859212e-07 -1.307259986756796e-07 0)
(8.955936144807965e-07 -1.292207257987176e-07 0)
(9.24892280744783e-07 -1.274603492543412e-07 0)
(9.540553819585141e-07 -1.254213026003473e-07 0)
(9.831511356913649e-07 -1.229669624294218e-07 0)
(1.012189115226466e-06 -1.200603943614243e-07 0)
(1.041132460422394e-06 -1.165599682367621e-07 0)
(4.338121018706036e-07 -1.849927758746727e-07 0)
(4.706724317030252e-07 -1.766059545624193e-07 0)
(5.064841595006792e-07 -1.702531603945961e-07 0)
(5.415323433859911e-07 -1.651240066001408e-07 0)
(5.756873399928738e-07 -1.610730272908727e-07 0)
(6.0904131587508e-07 -1.578273994493952e-07 0)
(6.417007094170071e-07 -1.551986811189174e-07 0)
(6.73750636418871e-07 -1.530310929073273e-07 0)
(7.052657461504586e-07 -1.511873142403726e-07 0)
(7.363221557667301e-07 -1.495506260637345e-07 0)
(7.670012958232493e-07 -1.480400915799701e-07 0)
(7.973675010250464e-07 -1.46574696752344e-07 0)
(8.274752518224807e-07 -1.450704864364464e-07 0)
(8.573697258530683e-07 -1.434714493151865e-07 0)
(8.870435347808036e-07 -1.417319976533646e-07 0)
(9.165887290345089e-07 -1.397499320073902e-07 0)
(9.459655608238918e-07 -1.375156472100909e-07 0)
(9.752535708346342e-07 -1.348871569923557e-07 0)
(1.004437846720151e-06 -1.318172097974696e-07 0)
(1.033522421514413e-06 -1.281500243630262e-07 0)
(4.224743079755539e-07 -2.025445320071881e-07 0)
(4.588013461000176e-07 -1.943858464177513e-07 0)
(4.943865494354333e-07 -1.878122690286078e-07 0)
(5.294557089611482e-07 -1.822758314699352e-07 0)
(5.637744790536947e-07 -1.77715400101502e-07 0)
(5.974314081677934e-07 -1.739373252775078e-07 0)
(6.304526090322829e-07 -1.707885572577838e-07 0)
(6.628844962083566e-07 -1.681250152865192e-07 0)
(6.947879428545903e-07 -1.658220764404689e-07 0)
(7.262290080118052e-07 -1.637728281158622e-07 0)
(7.57276728938166e-07 -1.618984051164758e-07 0)
(7.879838664826824e-07 -1.601114412642076e-07 0)
(8.184032340492233e-07 -1.583184073960808e-07 0)
(8.485774368276039e-07 -1.564615732405932e-07 0)
(8.78503211789895e-07 -1.544900660478628e-07 0)
(9.082691894861111e-07 -1.522991838021867e-07 0)
(9.378440027791719e-07 -1.49885713441548e-07 0)
(9.673131476492224e-07 -1.471031688792888e-07 0)
(9.966352967121468e-07 -1.438986341800425e-07 0)
(1.025888226606722e-06 -1.401338257953057e-07 0)
(4.129122594066318e-07 -2.192646384075086e-07 0)
(4.486841838474675e-07 -2.114389741876425e-07 0)
(4.839213861276707e-07 -2.048671820785994e-07 0)
(5.188161314355342e-07 -1.991226099316422e-07 0)
(5.531165947114371e-07 -1.942195147643701e-07 0)
(5.868836394734668e-07 -1.900354130711616e-07 0)
(6.200812582126676e-07 -1.86449267870524e-07 0)
(6.527412132856615e-07 -1.833490877729551e-07 0)
(6.849078734653753e-07 -1.806300885284699e-07 0)
(7.166303534156157e-07 -1.781972616175374e-07 0)
(7.479601460248817e-07 -1.759763276911775e-07 0)
(7.789339944731965e-07 -1.73876418521922e-07 0)
(8.096031125757902e-07 -1.717990757457016e-07 0)
(8.400055674946442e-07 -1.696920027348743e-07 0)
(8.701431585926604e-07 -1.674960178650123e-07 0)
(9.001036981020992e-07 -1.651113918694776e-07 0)
(9.298483268332075e-07 -1.625325099957646e-07 0)
(9.594714254767073e-07 -1.596129116648854e-07 0)
(9.889330188916041e-07 -1.563053023746683e-07 0)
(1.018354858284336e-06 -1.525092449553122e-07 0)
(4.046731036473546e-07 -2.354263998003005e-07 0)
(4.399209768636817e-07 -2.279312669488551e-07 0)
(4.748020235575461e-07 -2.214394259499738e-07 0)
(5.094143153567158e-07 -2.156015902061037e-07 0)
(5.435950875930381e-07 -2.104768781054954e-07 0)
(5.773312916867729e-07 -2.059862430189616e-07 0)
(6.105757481264284e-07 -2.020460031326284e-07 0)
(6.433511574454216e-07 -1.985815440485054e-07 0)
(6.756806209916139e-07 -1.955029084950545e-07 0)
(7.075936910604405e-07 -1.927277020779537e-07 0)
(7.391250226958191e-07 -1.901889883040782e-07 0)
(7.702951005473681e-07 -1.87795954910379e-07 0)
(8.011545157709124e-07 -1.854492548030891e-07 0)
(8.317350148747262e-07 -1.831057927097737e-07 0)
(8.620388944303996e-07 -1.806959103934984e-07 0)
(8.921547146066349e-07 -1.781389062912353e-07 0)
(9.220410400914074e-07 -1.754126703288149e-07 0)
(9.517912225516885e-07 -1.723808836162358e-07 0)
(9.813993989942254e-07 -1.690141916532775e-07 0)
(1.010953580612876e-06 -1.652325048619696e-07 0)
(3.975474880712501e-07 -2.511013193645417e-07 0)
(4.323137990474416e-07 -2.439313082266386e-07 0)
(4.668230450174585e-07 -2.375662077234125e-07 0)
(5.011295613996022e-07 -2.317171789088331e-07 0)
(5.351141351248257e-07 -2.264630171514771e-07 0)
(5.68724329326871e-07 -2.217488436266411e-07 0)
(6.019268416038541e-07 -2.175344913912947e-07 0)
(6.347291972283801e-07 -2.137752770895322e-07 0)
(6.671323496642221e-07 -2.103904091246391e-07 0)
(6.991500495181594e-07 -2.073126579678428e-07 0)
(7.308041685157172e-07 -2.044850107958299e-07 0)
(7.621008976678525e-07 -2.01819946100212e-07 0)
(7.930901959306331e-07 -1.99221925764373e-07 0)
(8.237958065301265e-07 -1.966620624910158e-07 0)
(8.542248488448228e-07 -1.940531906306069e-07 0)
(8.844558117974457e-07 -1.913405392869238e-07 0)
(9.144554688804278e-07 -1.884895530892241e-07 0)
(9.443168860556126e-07 -1.85378627440605e-07 0)
(9.740592238512828e-07 -1.819969380042345e-07 0)
(1.003699788699317e-06 -1.782439264126685e-07 0)
(3.913517448896289e-07 -2.663816606580842e-07 0)
(4.25703231979551e-07 -2.595097359292136e-07 0)
(4.598309732479963e-07 -2.532931175574378e-07 0)
(4.938285319625136e-07 -2.474832519286334e-07 0)
(5.275578798966451e-07 -2.421603311036661e-07 0)
(5.609856857105148e-07 -2.372911267898955e-07 0)
(5.94082389803835e-07 -2.32872231622772e-07 0)
(6.268380228024872e-07 -2.28878201451173e-07 0)
(6.592356862543653e-07 -2.252347834053038e-07 0)
(6.91281425476893e-07 -2.21892842989566e-07 0)
(7.229890955841664e-07 -2.188068602447019e-07 0)
(7.543540240811121e-07 -2.158940325859745e-07 0)
(7.854243735902167e-07 -2.130639038471691e-07 0)
(8.162116853143274e-07 -2.103063929066969e-07 0)
(8.467311586705705e-07 -2.075216116873855e-07 0)
(8.770512098554002e-07 -2.046721725393362e-07 0)
(9.071463007556039e-07 -2.017259854372665e-07 0)
(9.371133118596292e-07 -1.985731322614011e-07 0)
(9.669500022474915e-07 -1.952059173083117e-07 0)
(9.96671904305131e-07 -1.914919476592589e-07 0)
(3.859114409328287e-07 -2.813287383056661e-07 0)
(4.19874029278401e-07 -2.747261897178576e-07 0)
(4.536503995002856e-07 -2.686642441201918e-07 0)
(4.873290767494016e-07 -2.6291920394561e-07 0)
(5.207847010824395e-07 -2.575681100920428e-07 0)
(5.540081437780816e-07 -2.525982074463318e-07 0)
(5.869597435434857e-07 -2.480286272006756e-07 0)
(6.196188005077285e-07 -2.438480133170894e-07 0)
(6.51955961523757e-07 -2.399883380277378e-07 0)
(6.839768722205985e-07 -2.364189539977676e-07 0)
(7.156883812058436e-07 -2.331057150160375e-07 0)
(7.470786958010192e-07 -2.299724546816636e-07 0)
(7.781927515266989e-07 -2.269359614211737e-07 0)
(8.090307171641181e-07 -2.240012438942071e-07 0)
(8.39612511918051e-07 -2.210660755567919e-07 0)
(8.700021141450706e-07 -2.181107752548174e-07 0)
(9.001796968935589e-07 -2.150988155924826e-07 0)
(9.302357908102249e-07 -2.119338275719494e-07 0)
(9.601256125226639e-07 -2.085911083713365e-07 0)
(9.899482292688726e-07 -2.049550767085309e-07 0)
(3.810977103305037e-07 -2.959847081251743e-07 0)
(4.146820643154481e-07 -2.896323196819035e-07 0)
(4.481387324585153e-07 -2.837191525572553e-07 0)
(4.815006471755395e-07 -2.78049015121132e-07 0)
(5.146977470622462e-07 -2.726998171777043e-07 0)
(5.477135906701654e-07 -2.676684902528262e-07 0)
(5.80499286824623e-07 -2.629877792308806e-07 0)
(6.130333885165764e-07 -2.58659666951436e-07 0)
(6.452766962061532e-07 -2.546225900723894e-07 0)
(6.772391257988956e-07 -2.508606366090712e-07 0)
(7.089178873057899e-07 -2.4735066053653e-07 0)
(7.40299370831887e-07 -2.440232977522558e-07 0)
(7.714238696705261e-07 -2.408073022559778e-07 0)
(8.022861355724703e-07 -2.377183774770759e-07 0)
(8.328992094564794e-07 -2.34662071763381e-07 0)
(8.633465556029864e-07 -2.316193582820579e-07 0)
(8.935863863345839e-07 -2.285755419664872e-07 0)
(9.236851337677051e-07 -2.254181137110009e-07 0)