/*--------------------------------*- C++ -*----------------------------------*\
| =========                 |                                                 |
| \\      /  F ield         | foam-extend: Open Source CFD                    |
|  \\    /   O peration     | Version:     4.1                                |
|   \\  /    A nd           | Web:         http://www.foam-extend.org         |
|    \\/     M anipulation  |                                                 |
\*---------------------------------------------------------------------------*/
FoamFile
{
    version     2.0;
    format      ascii;
    class       vectorField;
    location    "1";
    object      solidsCellD_iteration17;
}
// * * * * * * * * * * * * * * * * * * * * * * * * * * * * * * * * * * * * * //


1000
(
(4.670299335171237e-07 -1.627594481289111e-07 0)
(4.438647521915582e-07 -1.530633871627611e-07 0)
(4.296827070777627e-07 -1.476044080299475e-07 0)
(4.220980176380892e-07 -1.460520620013217e-07 0)
(4.192339018724212e-07 -1.468498670278894e-07 0)
(4.19779599578369e-07 -1.493975275420492e-07 0)
(4.229140278291775e-07 -1.531470543171748e-07 0)
(4.278300851505381e-07 -1.578263632668942e-07 0)
(4.344126031456112e-07 -1.630974888059499e-07 0)
(4.415659284837041e-07 -1.686712415405261e-07 0)
(4.226732948322621e-07 -1.779916419405776e-07 0)
(3.980902026518238e-07 -1.720704022449305e-07 0)
(3.829367338682661e-07 -1.690346451806163e-07 0)
(3.745704674003444e-07 -1.691255630644092e-07 0)
(3.710093482208551e-07 -1.710404872208419e-07 0)
(3.709012722484028e-07 -1.743726719996381e-07 0)
(3.733547625857407e-07 -1.78642985749476e-07 0)
(3.775993978295818e-07 -1.837422963746642e-07 0)
(3.834442781524318e-07 -1.892214555180176e-07 0)
(3.898610177805266e-07 -1.952263389638981e-07 0)
(3.765036206661104e-07 -1.924300646454843e-07 0)
(3.514059860602543e-07 -1.90713959994609e-07 0)
(3.358502174877529e-07 -1.903746544966226e-07 0)
(3.271124983447695e-07 -1.922491744215133e-07 0)
(3.231529341319407e-07 -1.953510586484304e-07 0)
(3.226013754302153e-07 -1.994803980826343e-07 0)
(3.245587864428542e-07 -2.042870871665112e-07 0)
(3.28294753259044e-07 -2.097524798195096e-07 0)
(3.33570352773434e-07 -2.154620850202457e-07 0)
(3.395449921727309e-07 -2.215852649432402e-07 0)
(3.287869960156854e-07 -2.057848550068822e-07 0)
(3.042878039514827e-07 -2.084214860371953e-07 0)
(2.890241229212063e-07 -2.108984281789172e-07 0)
(2.803302140519936e-07 -2.146193900019863e-07 0)
(2.762462786949596e-07 -2.189239230154855e-07 0)
(2.754135114062891e-07 -2.238403531129938e-07 0)
(2.769323849142353e-07 -2.291597640073177e-07 0)
(2.80205925247908e-07 -2.349612276532216e-07 0)
(2.849116696632762e-07 -2.408969516490775e-07 0)
(2.903790242488017e-07 -2.471823116895432e-07 0)
(2.799800137997323e-07 -2.177741179848348e-07 0)
(2.570266854786234e-07 -2.247226108342558e-07 0)
(2.427063166345876e-07 -2.299590201553732e-07 0)
(2.345140006973381e-07 -2.35481507354697e-07 0)
(2.305598523749521e-07 -2.409574630816767e-07 0)
(2.295669442944815e-07 -2.466598089458001e-07 0)
(2.307425531014907e-07 -2.525024607697571e-07 0)
(2.335652020303503e-07 -2.586369401070986e-07 0)
(2.376941892382194e-07 -2.648265413375558e-07 0)
(2.425319349625162e-07 -2.712657857519789e-07 0)
(2.301599311362471e-07 -2.282179686545217e-07 0)
(2.098449111743346e-07 -2.391919992071589e-07 0)
(1.971513521172696e-07 -2.470067884125317e-07 0)
(1.898142518936489e-07 -2.542131341243858e-07 0)
(1.861965548779688e-07 -2.607855323886262e-07 0)
(1.851788568380892e-07 -2.672037158145675e-07 0)
(1.860921191108385e-07 -2.735255187052807e-07 0)
(1.884514890172283e-07 -2.799613454502281e-07 0)
(1.919282331968399e-07 -2.864094204424499e-07 0)
(1.960187372203302e-07 -2.930384532954862e-07 0)
(1.797135443091298e-07 -2.368292916269884e-07 0)
(1.628768148149973e-07 -2.51315030557944e-07 0)
(1.523309718855649e-07 -2.614030590749128e-07 0)
(1.462032722852801e-07 -2.701099808137307e-07 0)
(1.431572630844265e-07 -2.776400367556685e-07 0)
(1.422576427988234e-07 -2.846832203416165e-07 0)
(1.429454699543433e-07 -2.914243011276599e-07 0)
(1.448023777111301e-07 -2.981301665681901e-07 0)
(1.475551759004378e-07 -3.048062930052541e-07 0)
(1.508062541680117e-07 -3.115964581530578e-07 0)
(1.287289610289384e-07 -2.434778253197777e-07 0)
(1.161107831041412e-07 -2.607912878074165e-07 0)
(1.082103586201009e-07 -2.726812580554124e-07 0)
(1.036232056752571e-07 -2.825715359957439e-07 0)
(1.013386035481193e-07 -2.908740404689712e-07 0)
(1.006356754512353e-07 -2.984343415811696e-07 0)
(1.01095247261556e-07 -3.055378902917712e-07 0)
(1.024169096433968e-07 -3.124708699474062e-07 0)
(1.044075222273943e-07 -3.193429181205827e-07 0)
(1.067691428457635e-07 -3.262770970263949e-07 0)
(7.738177095089333e-08 -2.480010380974366e-07 0)
(6.957143923995392e-08 -2.672703275073898e-07 0)
(6.471230272786011e-08 -2.804077233204623e-07 0)
(6.186317774864982e-08 -2.911474685120311e-07 0)
(6.041277876408255e-08 -2.999884839919888e-07 0)
(5.994521976863061e-08 -3.078987971293138e-07 0)
(6.022524351756624e-08 -3.152674427258512e-07 0)
(6.104385748481206e-08 -3.223900714591158e-07 0)
(6.224802199270243e-08 -3.294105985424817e-07 0)
(6.367317514089587e-08 -3.364518945571536e-07 0)
(2.584662381474431e-08 -2.502860222355638e-07 0)
(2.321558206040616e-08 -2.705921127679932e-07 0)
(2.153358714802149e-08 -2.84352624935319e-07 0)
(2.055614436277967e-08 -2.955040674032039e-07 0)
(2.009176912019073e-08 -3.046261388168584e-07 0)
(1.993745047228541e-08 -3.127274859886747e-07 0)
(1.999989561930946e-08 -3.201988669432397e-07 0)
(2.02638532286277e-08 -3.273956446802363e-07 0)
(2.067897305784431e-08 -3.345023153272392e-07 0)
(2.115552549885921e-08 -3.416119055163156e-07 0)
(7.226728971523837e-07 -7.331890955743528e-09 0)
(7.281250872190553e-07 -5.274974111256923e-09 0)
(7.322039582127843e-07 -4.012471500302413e-09 0)
(7.36863076304745e-07 -3.317548276770501e-09 0)
(7.424090693897547e-07 -2.972367616290519e-09 0)
(7.491388114178685e-07 -2.873834835667889e-09 0)
(7.571473167569895e-07 -2.981938467309381e-09 0)
(7.663792172843692e-07 -3.184112362139165e-09 0)
(7.768382613253197e-07 -3.455237105876926e-09 0)
(7.883834545190542e-07 -3.801160981869865e-09 0)
(7.174693458942003e-07 -2.20508193087425e-08 0)
(7.219763662770956e-07 -1.600190011646467e-08 0)
(7.254665650450609e-07 -1.223742294022872e-08 0)
(7.297207599927292e-07 -1.019441333410092e-08 0)
(7.349808406348284e-07 -9.278880001366495e-09 0)
(7.415045754299067e-07 -9.022302825100531e-09 0)
(7.493698375966588e-07 -9.276199301315289e-09 0)
(7.58485937556153e-07 -9.90426036310788e-09 0)
(7.688307423201093e-07 -1.078013750645468e-08 0)
(7.802913748643772e-07 -1.178833626457901e-08 0)
(7.070968572066632e-07 -3.686500391984565e-08 0)
(7.097872252597626e-07 -2.720104342269735e-08 0)
(7.121208609838252e-07 -2.121753652667949e-08 0)
(7.156235370670835e-07 -1.789527296583894e-08 0)
(7.203716950468655e-07 -1.638077826571387e-08 0)
(7.265462235380226e-07 -1.60427208380998e-08 0)
(7.341110984378366e-07 -1.65269731604565e-08 0)
(7.430374673412004e-07 -1.755592978551518e-08 0)
(7.531493833717103e-07 -1.900384820229737e-08 0)
(7.644357513195284e-07 -2.068124848515508e-08 0)
(6.917012141512768e-07 -5.191346189939692e-08 0)
(6.918108081507559e-07 -3.913604149973235e-08 0)
(6.924774131459374e-07 -3.130480010365524e-08 0)
(6.948977410305131e-07 -2.699606429484086e-08 0)
(6.989159005019917e-07 -2.502932868792655e-08 0)
(7.046138347237884e-07 -2.461263990638188e-08 0)
(7.117799561987089e-07 -2.531227047576371e-08 0)
(7.204165381257769e-07 -2.673476242439891e-08 0)
(7.302131230526268e-07 -2.870616685698048e-08 0)
(7.412607272893543e-07 -3.101362398148693e-08 0)
(6.714836702683215e-07 -6.722452161805391e-08 0)
(6.684263573178448e-07 -5.202956448311702e-08 0)
(6.670400794813295e-07 -4.278511685966139e-08 0)
(6.681134179146539e-07 -3.777704808893419e-08 0)
(6.712283078612742e-07 -3.555132250044425e-08 0)
(6.762998928097667e-07 -3.516262580337378e-08 0)
(6.829871572759656e-07 -3.609632553638778e-08 0)
(6.912582661908643e-07 -3.790572789668271e-08 0)
(7.006877590337931e-07 -4.037172135336104e-08 0)
(7.114636221246205e-07 -4.325587125610243e-08 0)
(6.466877775860733e-07 -8.286160106381749e-08 0)
(6.40044934005259e-07 -6.612272768884345e-08 0)
(6.363767296400406e-07 -5.597968509376063e-08 0)
(6.359427008841184e-07 -5.060018059333635e-08 0)
(6.380368385091092e-07 -4.831274583423134e-08 0)
(6.423889097648037e-07 -4.805421466006847e-08 0)
(6.485489563735097e-07 -4.925624006005977e-08 0)
(6.56403480409599e-07 -5.144217077529577e-08 0)
(6.654281197671439e-07 -5.438241991163574e-08 0)
(6.758825588437065e-07 -5.777871386767606e-08 0)
(6.176962129585855e-07 -9.875298714906432e-08 0)
(6.072321514582692e-07 -8.148260336028155e-08 0)
(6.0113501989032e-07 -7.103885833194498e-08 0)
(5.991049284938573e-07 -6.562812120616043e-08 0)
(6.001207443017309e-07 -6.347663830162398e-08 0)
(6.037240052227874e-07 -6.347193175927742e-08 0)
(6.09327316713068e-07 -6.499186265776539e-08 0)
(6.167425646827136e-07 -6.751436508706781e-08 0)
(6.253617109494704e-07 -7.086154760612329e-08 0)
(6.354876531077616e-07 -7.466602051122893e-08 0)
(5.848253349309984e-07 -1.148043604212802e-07 0)
(5.705837683667103e-07 -9.803727144049462e-08 0)
(5.621064951407106e-07 -8.794572653060756e-08 0)
(5.58486251256363e-07 -8.292624843558001e-08 0)
(5.584599862094888e-07 -8.114793589843686e-08 0)
(5.613154318553846e-07 -8.154396336704806e-08 0)
(5.663614043718666e-07 -8.346041326256694e-08 0)
(5.733129257877485e-07 -8.633242626869859e-08 0)
(5.815285371518778e-07 -9.004479672164702e-08 0)
(5.912539438833424e-07 -9.415934854060289e-08 0)
(5.484818943123955e-07 -1.309375365954341e-07 0)
(5.307253303648372e-07 -1.156444810942474e-07 0)
(5.200042484687896e-07 -1.065607118726443e-07 0)
(5.148653643216279e-07 -1.023341120435128e-07 0)
(5.138065543156877e-07 -1.011629894041621e-07 0)
(5.158606209352509e-07 -1.02087370044806e-07 0)
(5.203060944051097e-07 -1.044655069118864e-07 0)
(5.267324198279203e-07 -1.0770382660154e-07 0)
(5.345722215953018e-07 -1.117496248895859e-07 0)
(5.438813362059006e-07 -1.159556776249171e-07 0)
(5.090924086771162e-07 -1.470027370233665e-07 0)
(4.883336341467914e-07 -1.340865106484833e-07 0)
(4.756640494117336e-07 -1.265729448408661e-07 0)
(4.692060501685618e-07 -1.23526910050096e-07 0)
(4.672158077340708e-07 -1.23223668146469e-07 0)
(4.685805868728379e-07 -1.248480444924759e-07 0)
(4.725604050968978e-07 -1.278302334435373e-07 0)
(4.784783781720819e-07 -1.316372921408481e-07 0)
(4.860666301560716e-07 -1.361280108864143e-07 0)
(4.946663865739847e-07 -1.408520257869449e-07 0)
(8.010138970476388e-07 -4.124994525105098e-09 0)
(8.147117553316731e-07 -4.272161095201188e-09 0)
(8.292262007719885e-07 -4.392316307045288e-09 0)
(8.445042521164677e-07 -4.496788342099777e-09 0)
(8.604653214894138e-07 -4.592368685302036e-09 0)
(8.770535001475569e-07 -4.675017973051673e-09 0)
(8.941974426841452e-07 -4.716743236217605e-09 0)
(9.118501204323236e-07 -4.73099785817535e-09 0)
(9.299926640296244e-07 -4.742640933400357e-09 0)
(9.485772715511931e-07 -4.743385608517839e-09 0)
(9.675460724179691e-07 -4.720702844500953e-09 0)
(9.868622569895667e-07 -4.669397720555429e-09 0)
(1.006486361316775e-06 -4.584626489933399e-09 0)
(1.026378582854935e-06 -4.467088919288665e-09 0)
(1.046499538563737e-06 -4.320237971046868e-09 0)
(1.066811084448551e-06 -4.142693949991425e-09 0)
(1.087268165815504e-06 -3.92772356049219e-09 0)
(1.107823234817211e-06 -3.66240459672407e-09 0)
(1.128420732357502e-06 -3.341718234370338e-09 0)
(1.148966176256647e-06 -2.963594524995499e-09 0)
(7.932498049590847e-07 -1.268293572435428e-08 0)
(8.075780930172064e-07 -1.306281564842548e-08 0)
(8.226600053349111e-07 -1.340272916765742e-08 0)
(8.384437527969829e-07 -1.370304914923774e-08 0)
(8.548525461302241e-07 -1.393161842475108e-08 0)
(8.718282220492692e-07 -1.411428414254123e-08 0)
(8.893377381680811e-07 -1.424325062237531e-08 0)
(9.073429486872035e-07 -1.432753398655994e-08 0)
(9.258094555854851e-07 -1.437113606947234e-08 0)
(9.446793058302719e-07 -1.434562836382363e-08 0)
(9.639111402604836e-07 -1.424317144734353e-08 0)
(9.834784598521345e-07 -1.407070848320209e-08 0)
(1.003345922066479e-06 -1.382030042305198e-08 0)
(1.023472435237207e-06 -1.348074873386609e-08 0)
(1.043816026696032e-06 -1.30439057151487e-08 0)
(1.064337746680176e-06 -1.250170349597473e-08 0)
(1.08499458009228e-06 -1.18389478185027e-08 0)
(1.105729739754448e-06 -1.103126908456193e-08 0)
(1.126516846505141e-06 -1.00583888038252e-08 0)
(1.147227831417608e-06 -8.91725898339212e-09 0)
(7.780474894469306e-07 -2.20734137136131e-08 0)
(7.936255665941357e-07 -2.256041084248811e-08 0)
(8.098114536597281e-07 -2.29931933812828e-08 0)
(8.265478550892527e-07 -2.33945355496839e-08 0)
(8.438299639271911e-07 -2.371181940821152e-08 0)
(8.61605089713915e-07 -2.397399937663862e-08 0)
(8.798411938980947e-07 -2.415096295843148e-08 0)
(8.984916229050827e-07 -2.424301296069921e-08 0)
(9.175503480454581e-07 -2.425808182731399e-08 0)
(9.369652158904364e-07 -2.417233394136043e-08 0)
(9.567127812554503e-07 -2.39828522035827e-08 0)
(9.767626150448429e-07 -2.369111221074297e-08 0)
(9.970743187417607e-07 -2.327285537830252e-08 0)
(1.017612663215106e-06 -2.270525185509992e-08 0)
(1.038348362772821e-06 -2.197783366072459e-08 0)
(1.059256353179256e-06 -2.107767792745503e-08 0)
(1.080287127478779e-06 -1.997591331998505e-08 0)
(1.101399588397128e-06 -1.863848919607635e-08 0)
(1.122558389017253e-06 -1.702036204746688e-08 0)
(1.143653101040561e-06 -1.512567028174203e-08 0)
(7.558007964070186e-07 -3.27449010385666e-08 0)
(7.731459116045194e-07 -3.314691214617201e-08 0)
(7.90938851115776e-07 -3.350601326836273e-08 0)
(8.090986382690589e-07 -3.38654404873314e-08 0)
(8.276715265036115e-07 -3.414482796944132e-08 0)
(8.465940879085242e-07 -3.437896584683851e-08 0)
(8.658829961936732e-07 -3.451549023444925e-08 0)
(8.854999817305721e-07 -3.456270747706576e-08 0)
(9.054622307885781e-07 -3.452557998765016e-08 0)
(9.257121761861627e-07 -3.436312008800945e-08 0)
(9.462332506939009e-07 -3.405975141905789e-08 0)
(9.669990661608372e-07 -3.361051203161343e-08 0)
(9.879776747756196e-07 -3.299192237856357e-08 0)
(1.009145219985899e-06 -3.218203503668429e-08 0)
(1.030480445418266e-06 -3.11718929592413e-08 0)
(1.051960569644262e-06 -2.992828692814047e-08 0)
(1.073535397670397e-06 -2.841331796364537e-08 0)
(1.095189857234783e-06 -2.657658924826206e-08 0)
(1.116865851902278e-06 -2.434396517999651e-08 0)
(1.138507154612453e-06 -2.1747643985235e-08 0)
(7.271932815519161e-07 -4.509727117344959e-08 0)
(7.467849038574169e-07 -4.513816790184587e-08 0)
(7.666183554967111e-07 -4.520734323264126e-08 0)
(7.865638420501621e-07 -4.536493626580992e-08 0)
(8.067745946071732e-07 -4.546796294290327e-08 0)
(8.271780884102924e-07 -4.556862932738639e-08 0)
(8.47825365108913e-07 -4.558783814913522e-08 0)
(8.686952028704485e-07 -4.553050301246398e-08 0)
(8.89795245806863e-07 -4.537434881659746e-08 0)
(9.110966750324177e-07 -4.507067373804334e-08 0)
(9.32602661840452e-07 -4.460979564528924e-08 0)
(9.542972982594795e-07 -4.398113799874061e-08 0)
(9.761561040547991e-07 -4.315296328817146e-08 0)
(9.981584786490597e-07 -4.20955139502933e-08 0)
(1.020296097203661e-06 -4.079370452005991e-08 0)
(1.042526406841371e-06 -3.920154264463226e-08 0)
(1.064841312356966e-06 -3.727294613841314e-08 0)
(1.087197659820819e-06 -3.494782091098407e-08 0)
(1.109588570370438e-06 -3.21293536519212e-08 0)
(1.131932889891169e-06 -2.887119301152017e-08 0)
(6.929672745607164e-07 -5.946430110405274e-08 0)
(7.151480341460276e-07 -5.881176426235631e-08 0)
(7.374078820807995e-07 -5.830625800642995e-08 0)
(7.595022554049115e-07 -5.805605460174198e-08 0)
(7.816803483478555e-07 -5.782777628746451e-08 0)
(8.038750127594904e-07 -5.766836850608695e-08 0)
(8.261297766165976e-07 -5.744456076657072e-08 0)
(8.484983870302024e-07 -5.717501091508208e-08 0)
(8.709741035447487e-07 -5.682217795976927e-08 0)
(8.935617504609738e-07 -5.632637145016403e-08 0)
(9.162715042482547e-07 -5.567394890007701e-08 0)
(9.390916030899369e-07 -5.484351058531176e-08 0)
(9.62007319311046e-07 -5.379024922570503e-08 0)
(9.850066923717361e-07 -5.247924937790098e-08 0)
(1.00809876842521e-06 -5.088117601396687e-08 0)
(1.031239477446542e-06 -4.894803274785863e-08 0)
(1.05445019631598e-06 -4.661669980639683e-08 0)
(1.077658903245358e-06 -4.382820955077702e-08 0)
(1.100915311839739e-06 -4.047117444843834e-08 0)
(1.124106519630008e-06 -3.658659696174245e-08 0)
(6.540952178447297e-07 -7.594874253188102e-08 0)
(6.791258445567144e-07 -7.430828910507752e-08 0)
(7.040832937104041e-07 -7.297024215305667e-08 0)
(7.285726512516882e-07 -7.208292517207071e-08 0)
(7.529300350223986e-07 -7.132180289975911e-08 0)
(7.771200408561212e-07 -7.073235145470974e-08 0)
(8.012153254568472e-07 -7.015277755333516e-08 0)
(8.252826434089737e-07 -6.957667269215306e-08 0)
(8.49335492664883e-07 -6.895343715467393e-08 0)
(8.733985061986364e-07 -6.821749991753852e-08 0)
(8.974879183622968e-07 -6.733365873667651e-08 0)
(9.216013927203032e-07 -6.626556932863227e-08 0)
(9.457395881159246e-07 -6.495995952426021e-08 0)
(9.699070571046339e-07 -6.338078631113304e-08 0)
(9.941129507460697e-07 -6.148611819896104e-08 0)
(1.018329096023917e-06 -5.922179526882196e-08 0)
(1.042579473395689e-06 -5.650776232791884e-08 0)
(1.066798859067633e-06 -5.327976049885708e-08 0)
(1.091038669519787e-06 -4.942188200018674e-08 0)
(1.115203106570359e-06 -4.495772555916109e-08 0)
(6.114185774172209e-07 -9.468761535957461e-08 0)
(6.394123635727426e-07 -9.162281747035673e-08 0)
(6.672684957879594e-07 -8.91180353767969e-08 0)
(6.943526024846092e-07 -8.7322665468035e-08 0)
(7.211359871947103e-07 -8.585788049976812e-08 0)
(7.475060538029524e-07 -8.468275568451753e-08 0)
(7.7365232911881e-07 -8.36473150639183e-08 0)
(7.99592984612572e-07 -8.268839474205615e-08 0)
(8.253873607096752e-07 -8.173053073416656e-08 0)
(8.510719187394452e-07 -8.070250167558686e-08 0)
(8.766769643454735e-07 -7.954909044779038e-08 0)
(9.022194343965601e-07 -7.821858919437298e-08 0)
(9.27715439787455e-07 -7.665007768190508e-08 0)
(9.531881137667016e-07 -7.480088282233121e-08 0)
(9.786441087424809e-07 -7.261761583291811e-08 0)
(1.004070730157572e-06 -7.003340604178595e-08 0)
(1.02947829447657e-06 -6.696144260296661e-08 0)
(1.054832657534828e-06 -6.33211211970457e-08 0)
(1.080168968228791e-06 -5.899830491217367e-08 0)
(1.105420290537189e-06 -5.400534321312205e-08 0)
(5.658377334758731e-07 -1.155954312543255e-07 0)
(5.968302678294268e-07 -1.108934599885926e-07 0)
(6.276421708018698e-07 -1.070800917478904e-07 0)
(6.574250130614403e-07 -1.0412806555884e-07 0)
(6.867212960675009e-07 -1.017342509955732e-07 0)
(7.154361754234481e-07 -9.976744999875703e-08 0)
(7.437523353159125e-07 -9.809818518925874e-08 0)
(7.717068320198822e-07 -9.661219201911798e-08 0)
(7.993806050487129e-07 -9.521894978744536e-08 0)
(8.268220906261895e-07 -9.382322526503725e-08 0)
(8.540761508758972e-07 -9.234802362349975e-08 0)
(8.811823299828518e-07 -9.072519666312945e-08 0)
(9.081709337743698e-07 -8.888348656353047e-08 0)
(9.350754842040237e-07 -8.676698560569088e-08 0)
(9.619020984261548e-07 -8.430574153884456e-08 0)
(9.886515143507424e-07 -8.141343123205124e-08 0)
(1.01533495133887e-06 -7.800517087715534e-08 0)
(1.041931565609213e-06 -7.397700091159253e-08 0)
(1.068483664970028e-06 -6.923331844690816e-08 0)
(1.094943971303947e-06 -6.376676818019735e-08 0)
(5.18382338889422e-07 -1.384646009432264e-07 0)
(5.530123623696041e-07 -1.311493977561249e-07 0)
(5.869480610114586e-07 -1.25709995501952e-07 0)
(6.196094144926057e-07 -1.214465827738048e-07 0)
(6.514098715449552e-07 -1.180822480611704e-07 0)
(6.8249030104583e-07 -1.153171262083005e-07 0)
(7.129595764028005e-07 -1.12991636046921e-07 0)
(7.429331063338462e-07 -1.109554413317022e-07 0)
(7.724978149566808e-07 -1.091047258560967e-07 0)
(8.017180760487434e-07 -1.073232729865767e-07 0)
(8.306531567150748e-07 -1.055183838548266e-07 0)
(8.593570976592667e-07 -1.036064157647767e-07 0)
(8.878705602267991e-07 -1.015022858754802e-07 0)
(9.162338314549426e-07 -9.913638644100958e-08 0)
(9.444589970117776e-07 -9.642271329140028e-08 0)
(9.725612224643349e-07 -9.325956437648718e-08 0)
(1.000566006463345e-06 -8.956779916654303e-08 0)
(1.028463581137038e-06 -8.520284164199648e-08 0)
(1.056305378361771e-06 -8.009695300814857e-08 0)
(1.084068041881761e-06 -7.420740651260461e-08 0)
(4.812458053465063e-07 -1.627155812963649e-07 0)
(5.18955360395737e-07 -1.526365545811262e-07 0)
(5.552078499909004e-07 -1.455720812063386e-07 0)
(5.902055147689768e-07 -1.398450970899267e-07 0)
(6.24044566144318e-07 -1.353247111241972e-07 0)
(6.569696245608964e-07 -1.316143679666236e-07 0)
(6.890979861378582e-07 -1.284966946156087e-07 0)
(7.20585134300147e-07 -1.25798029286916e-07 0)
(7.515286315514545e-07 -1.233781417017111e-07 0)
(7.82013815676695e-07 -1.211000049624754e-07 0)
(8.121204404239631e-07 -1.188597958796416e-07 0)
(8.419154243428608e-07 -1.165628141869471e-07 0)
(8.714482003918034e-07 -1.141120731085138e-07 0)
(9.007650491941302e-07 -1.114290055944427e-07 0)
(9.298811405047829e-07 -1.084172759195115e-07 0)
(9.588324881613985e-07 -1.049596719500115e-07 0)
(9.876436722097253e-07 -1.009953893961702e-07 0)
(1.016342806518927e-06 -9.634288926291476e-08 0)
(1.044973801450571e-06 -9.094159979640082e-08 0)
(1.07352255206265e-06 -8.471266103901149e-08 0)
(4.612009292645519e-07 -1.834176476898128e-07 0)
(4.994360227125706e-07 -1.729353762473724e-07 0)
(5.361254366369729e-07 -1.649052347646723e-07 0)
(5.718532274791403e-07 -1.5823155989257e-07 0)
(6.064870269172077e-07 -1.527878760019593e-07 0)
(6.402151362077549e-07 -1.482394589261722e-07 0)
(6.731340293042117e-07 -1.443690414912499e-07 0)
(7.053624593917377e-07 -1.409980804618945e-07 0)
(7.369856373697319e-07 -1.379659731376641e-07 0)
(7.68091550109694e-07 -1.351327995735656e-07 0)
(7.987636357426475e-07 -1.32393595908453e-07 0)
(8.290682867221858e-07 -1.296444329987202e-07 0)
(8.59055038955057e-07 -1.267801700676882e-07 0)
(8.887730403540599e-07 -1.237194992540462e-07 0)
(9.182400356009212e-07 -1.203613141782124e-07 0)
(9.475165519205967e-07 -1.165809081415854e-07 0)
(9.766080069028697e-07 -1.123344960496331e-07 0)
(1.005578326702218e-06 -1.074279694883355e-07 0)
(1.034457689993372e-06 -1.017840298758456e-07 0)
(1.063227376703257e-06 -9.531134117778464e-08 0)
(4.451853088096562e-07 -2.026756530473189e-07 0)
(4.830182839700383e-07 -1.921232436987559e-07 0)
(5.197959566744567e-07 -1.83632104593989e-07 0)
(5.557904290949897e-07 -1.763691735135231e-07 0)
(5.908385059506182e-07 -1.70250318412327e-07 0)
(6.250494310968309e-07 -1.650141904253487e-07 0)
(6.584815994120436e-07 -1.604837866624308e-07 0)
(6.912123461101153e-07 -1.564846785173476e-07 0)
(7.233172848841833e-07 -1.528622279038532e-07 0)
(7.548775853785516e-07 -1.494858527772184e-07 0)
(7.859700322164263e-07 -1.462520169896101e-07 0)
(8.166558001064149e-07 -1.43049021708508e-07 0)
(8.469831074829574e-07 -1.397675885859841e-07 0)
(8.770045192808224e-07 -1.363304965943858e-07 0)
(9.067403621581636e-07 -1.326343001349683e-07 0)
(9.362662730754737e-07 -1.285518908989346e-07 0)
(9.655836242368073e-07 -1.240419533457927e-07 0)
(9.947680720943828e-07 -1.189177256577003e-07 0)
(1.023836726061102e-06 -1.13079100006118e-07 0)
(1.052795639452631e-06 -1.064446522311442e-07 0)
(4.314096751920054e-07 -2.214387429392058e-07 0)
(4.687693433801208e-07 -2.109712091940974e-07 0)
(5.053218473334453e-07 -2.021729779021284e-07 0)
(5.412918259789177e-07 -1.944303505621023e-07 0)
(5.764507887089832e-07 -1.877308356144089e-07 0)
(6.10893461121743e-07 -1.818861721385973e-07 0)
(6.446143919976021e-07 -1.767493499878151e-07 0)
(6.776680870111227e-07 -1.721581919769305e-07 0)
(7.101124024509979e-07 -1.679719825348093e-07 0)
(7.420120330182896e-07 -1.640714515671679e-07 0)
(7.734304106069259e-07 -1.603566521284682e-07 0)
(8.044205993303477e-07 -1.56710368463343e-07 0)
(8.350287301386742e-07 -1.53022876916502e-07 0)
(8.653084769585431e-07 -1.492247403576949e-07 0)
(8.952835883682086e-07 -1.452050422532953e-07 0)
(9.250303689858753e-07 -1.408476872484473e-07 0)
(9.545563243970097e-07 -1.360995880266013e-07 0)
(9.839398097632376e-07 -1.307882601493594e-07 0)
(1.013176731554864e-06 -1.248057451818889e-07 0)
(1.042333306135411e-06 -1.180897887822451e-07 0)
(4.19603641212652e-07 -2.393044085888121e-07 0)
(4.563728064383954e-07 -2.290375481294341e-07 0)
(4.925542749428847e-07 -2.201359636951157e-07 0)
(5.28302421366177e-07 -2.121123502256927e-07 0)
(5.633915066865731e-07 -2.049980348683905e-07 0)
(5.97876550321558e-07 -1.986774906968423e-07 0)
(6.317127613090623e-07 -1.93025726500154e-07 0)
(6.649390836870235e-07 -1.87911226059978e-07 0)
(6.975922451143593e-07 -1.832117557154284e-07 0)
(7.29718520220482e-07 -1.788228794315557e-07 0)
(7.613669817201978e-07 -1.746521097914645e-07 0)
(7.925807135131311e-07 -1.705813625340803e-07 0)
(8.234037345705993e-07 -1.665057412443356e-07 0)
(8.538881400875225e-07 -1.623675553172756e-07 0)
(8.840582647518514e-07 -1.580438557568765e-07 0)
(9.139901825316774e-07 -1.534408514501183e-07 0)
(9.436924376762302e-07 -1.484834923883772e-07 0)
(9.732437361247064e-07 -1.430169371306185e-07 0)
(1.002637086738033e-06 -1.369431530378347e-07 0)
(1.031988745078412e-06 -1.302152199125459e-07 0)
(4.09327130649271e-07 -2.565467794010209e-07 0)
(4.454975728343799e-07 -2.465182610927845e-07 0)
(4.812504946288503e-07 -2.376006136223794e-07 0)
(5.166587567235061e-07 -2.293978049125547e-07 0)
(5.515573293954233e-07 -2.219824278273486e-07 0)
(5.859411699791968e-07 -2.152803146926586e-07 0)
(6.197634057316098e-07 -2.09196235469615e-07 0)
(6.530434668196176e-07 -2.036302339791616e-07 0)
(6.857968692995517e-07 -1.984750936194736e-07 0)
(7.180518135617911e-07 -1.936432650280191e-07 0)
(7.498446087510955e-07 -1.890524203029642e-07 0)
(7.812082288082951e-07 -1.845872443607504e-07 0)
(8.121846006155504e-07 -1.801520726237217e-07 0)
(8.428221805760204e-07 -1.75701121361098e-07 0)
(8.731423708107554e-07 -1.710973236937889e-07 0)
(9.032196988277152e-07 -1.66277840619459e-07 0)
(9.330653261704288e-07 -1.611448952894801e-07 0)
(9.62751913001371e-07 -1.555628672698202e-07 0)
(9.923027119745953e-07 -1.494505178024052e-07 0)
(1.021825677232937e-06 -1.427602528607214e-07 0)
(4.003409645389341e-07 -2.731699377729678e-07 0)
(4.359250168858802e-07 -2.634027668923241e-07 0)
(4.71204648025287e-07 -2.545414926763022e-07 0)
(5.062248446409002e-07 -2.462501438553637e-07 0)
(5.408456126725003e-07 -2.386317949802604e-07 0)
(5.750347659774514e-07 -2.316343426851506e-07 0)
(6.087492123457836e-07 -2.252013793931736e-07 0)
(6.419873707021923e-07 -2.192556781375767e-07 0)
(6.747474210383985e-07 -2.137030705639895e-07 0)
(7.070435423604139e-07 -2.084758086284995e-07 0)
(7.389018605780104e-07 -2.035042133881356e-07 0)
(7.703463912595943e-07 -1.986782773876633e-07 0)
(8.014168006905996e-07 -1.939154507909113e-07 0)
(8.32154389327952e-07 -1.891827112415999e-07 0)
(8.625811214079983e-07 -1.843294925432287e-07 0)
(8.927641682328583e-07 -1.793209812504379e-07 0)
(9.227196804169921e-07 -1.740461583288481e-07 0)
(9.525183061369034e-07 -1.683922144729834e-07 0)
(9.822150988456618e-07 -1.622848313833119e-07 0)
(1.011865752556633e-06 -1.556695628932883e-07 0)
(3.924261108786118e-07 -2.892676843680321e-07 0)
(4.274584593959365e-07 -2.797592398783972e-07 0)
(4.62245331056131e-07 -2.709896743329675e-07 0)
(4.968549814456827e-07 -2.626708324037424e-07 0)
(5.311373808333841e-07 -2.549135780709616e-07 0)
(5.650706975159548e-07 -2.476932703850864e-07 0)
(5.986037275470235e-07 -2.409839901202718e-07 0)
(6.317205527935839e-07 -2.347230517927322e-07 0)
(6.644076557038199e-07 -2.288290449319688e-07 0)
(6.96671806003363e-07 -2.232556646705293e-07 0)
(7.285304851407915e-07 -2.179472646090589e-07 0)
(7.599995739031927e-07 -2.128003000497145e-07 0)
(7.911162534461305e-07 -2.077457491920412e-07 0)
(8.219110491078736e-07 -2.027619398897376e-07 0)
(8.524076173775394e-07 -1.976941416261762e-07 0)
(8.826679711642524e-07 -1.925255487650266e-07 0)
(9.127099213726018e-07 -1.871460416058947e-07 0)
(9.426115391650008e-07 -1.814613883874006e-07 0)
(9.724180692136073e-07 -1.753932939428434e-07 0)
(1.002169940895982e-06 -1.688931166413316e-07 0)
(3.853931512668729e-07 -3.048921032915319e-07 0)
(4.198870525245026e-07 -2.956329677935346e-07 0)
(4.541960583616406e-07 -2.869727708756662e-07 0)
(4.883767196538462e-07 -2.786648553553083e-07 0)
(5.222951387149215e-07 -2.708173369395434e-07 0)
(5.559350060456665e-07 -2.634361205871717e-07 0)
(5.892356679595375e-07 -2.565107788692136e-07 0)
(6.221759826382863e-07 -2.499910315327672e-07 0)
(6.547348674402694e-07 -2.43809349157606e-07 0)
(6.869178760641619e-07 -2.379402540788198e-07 0)
(7.187331425869677e-07 -2.3234090791673e-07 0)
(7.501884838561615e-07 -2.269148506159848e-07 0)
(7.813167207698032e-07 -2.216079982739944e-07 0)
(8.121387368990496e-07 -2.164068632978133e-07 0)
(8.426790279869759e-07 -2.111581879794429e-07 0)
(8.729944161207761e-07 -2.058688605485866e-07 0)
(9.031086403772797e-07 -2.0041583479246e-07 0)
(9.33100419777027e-07 -1.947298395119328e-07 0)
(9.629734602431351e-07 -1.887305766335746e-07 0)
(9.928299785479803e-07 -1.82389113133833e-07 0)
(3.790869550992271e-07 -3.200953325993188e-07 0)
(4.130589452194717e-07 -3.110723899034863e-07 0)
(4.46911363620845e-07 -3.025289788218431e-07 0)
(4.806591655392369e-07 -2.942527433999823e-07 0)
(5.142112875990615e-07 -2.863562747456633e-07 0)
(5.475379189450502e-07 -2.788622677676294e-07 0)
(5.805786429228888e-07 -2.717693948521641e-07 0)
(6.13312464649167e-07 -2.650397260442882e-07 0)
(6.457116396654858e-07 -2.586202751919519e-07 0)
(6.777837231643678e-07 -2.525036577081373e-07 0)
(7.095254508750892e-07 -2.466578576688492e-07 0)
(7.409393491916271e-07 -2.409922021009552e-07 0)
(7.720501644085408e-07 -2.354693695380153e-07 0)
(8.028756485699284e-07 -2.300821576475825e-07 0)
(8.334269840034113e-07 -2.24689869108847e-07 0)
(8.637914869967788e-07 -2.192945799055169e-07 0)
(8.93963330856834e-07 -2.138088622257345e-07 0)
(9.239989170713855e-07 -2.081487269959584e-07 0)